 written on 27Jul2025 at 22:43:00 
          22
          85
    2    1    1    1    2    1    1    1    1    1    2    1    1    1    1
    1    1    1    1    2    1    1    1    1    1    1    1    1    1    1
    1    1    1    1    1    1    1    1    1    1    1    1    1    1    1
    1    1    1    1    1    1    1    1    1    1    1    1    1    1    1
    1    1    1    1    1    2    1    1    1    1    1    1    1    1    2
    1    1    1    1    1    2    1    1    1    2
   -6    3    0    1    1    0.000999   -0.000000
   -6    3    0    2    1    0.000000   -0.000000
   -6    3    0    3    1    0.000000    0.000000
   -6    3    0    4    1    0.000335    0.000000
   -6    3    0    5    1    0.000000    0.000000
   -6    3    0    6    1   -0.000000    0.000335
   -6    3    0    7    1   -0.001218   -0.000000
   -6    3    0    8    1   -0.000000    0.000000
   -6    3    0    9    1    0.000000   -0.000000
   -6    3    0   10    1    0.000562   -0.000000
   -6    3    0   11    1    0.000000   -0.000000
   -6    3    0   12    1    0.000000    0.000562
   -6    3    0   13    1    0.000128   -0.000000
   -6    3    0   14    1   -0.000000    0.000019
   -6    3    0   15    1    0.000000    0.000045
   -6    3    0   16    1   -0.000357    0.000000
   -6    3    0   17    1    0.000229    0.000000
   -6    3    0   18    1   -0.000000   -0.000251
   -6    3    0   19    1   -0.001566    0.000000
   -6    3    0   20    1    0.000000    0.000392
   -6    3    0   21    1    0.000000   -0.000175
   -6    3    0   22    1   -0.000697    0.000000
   -6    3    0    1    2    0.000000   -0.000000
   -6    3    0    2    2    0.000999   -0.000000
   -6    3    0    3    2   -0.000335    0.000000
   -6    3    0    4    2   -0.000000   -0.000000
   -6    3    0    5    2   -0.000000    0.000335
   -6    3    0    6    2    0.000000    0.000000
   -6    3    0    7    2   -0.000000    0.000000
   -6    3    0    8    2   -0.001218    0.000000
   -6    3    0    9    2   -0.000562    0.000000
   -6    3    0   10    2    0.000000    0.000000
   -6    3    0   11    2    0.000000    0.000562
   -6    3    0   12    2    0.000000    0.000000
   -6    3    0   13    2    0.000000    0.000019
   -6    3    0   14    2    0.000128    0.000000
   -6    3    0   15    2    0.000357    0.000000
   -6    3    0   16    2   -0.000000   -0.000045
   -6    3    0   17    2   -0.000000   -0.000251
   -6    3    0   18    2    0.000229   -0.000000
   -6    3    0   19    2   -0.000000    0.000392
   -6    3    0   20    2   -0.001566    0.000000
   -6    3    0   21    2    0.000697    0.000000
   -6    3    0   22    2    0.000000    0.000175
   -6    3    0    1    3   -0.000000   -0.000000
   -6    3    0    2    3    0.000709   -0.000000
   -6    3    0    3    3   -0.000251   -0.000000
   -6    3    0    4    3    0.000000   -0.003773
   -6    3    0    5    3    0.000000    0.000220
   -6    3    0    6    3   -0.003773    0.000000
   -6    3    0    7    3   -0.000000    0.000000
   -6    3    0    8    3   -0.001558    0.000000
   -6    3    0    9    3    0.000151   -0.000000
   -6    3    0   10    3   -0.000000    0.000584
   -6    3    0   11    3   -0.000000    0.000071
   -6    3    0   12    3    0.000584   -0.000000
   -6    3    0   13    3    0.000000   -0.000039
   -6    3    0   14    3   -0.000519    0.000000
   -6    3    0   15    3    0.000030   -0.000000
   -6    3    0   16    3   -0.000000   -0.002930
   -6    3    0   17    3    0.000000    0.000248
   -6    3    0   18    3   -0.002595   -0.000000
   -6    3    0   19    3    0.000000   -0.000781
   -6    3    0   20    3   -0.003159    0.000000
   -6    3    0   21    3    0.001751    0.000000
   -6    3    0   22    3    0.000000    0.001679
   -6    3    0    1    4   -0.000709    0.000000
   -6    3    0    2    4   -0.000000    0.000000
   -6    3    0    3    4    0.000000   -0.003773
   -6    3    0    4    4   -0.000251    0.000000
   -6    3    0    5    4    0.003773    0.000000
   -6    3    0    6    4    0.000000   -0.000220
   -6    3    0    7    4    0.001558    0.000000
   -6    3    0    8    4   -0.000000   -0.000000
   -6    3    0    9    4    0.000000    0.000584
   -6    3    0   10    4    0.000151    0.000000
   -6    3    0   11    4   -0.000584   -0.000000
   -6    3    0   12    4   -0.000000   -0.000071
   -6    3    0   13    4    0.000519    0.000000
   -6    3    0   14    4    0.000000    0.000039
   -6    3    0   15    4   -0.000000   -0.002930
   -6    3    0   16    4    0.000030   -0.000000
   -6    3    0   17    4    0.002595   -0.000000
   -6    3    0   18    4    0.000000   -0.000248
   -6    3    0   19    4    0.003159    0.000000
   -6    3    0   20    4   -0.000000    0.000781
   -6    3    0   21    4   -0.000000    0.001679
   -6    3    0   22    4    0.001751   -0.000000
   -6    3    0    1    5    0.000000    0.000000
   -6    3    0    2    5    0.000000    0.000709
   -6    3    0    3    5    0.000000   -0.000220
   -6    3    0    4    5   -0.003773   -0.000000
   -6    3    0    5    5   -0.000251   -0.000000
   -6    3    0    6    5    0.000000    0.003774
   -6    3    0    7    5   -0.000000    0.000000
   -6    3    0    8    5    0.000000   -0.001557
   -6    3    0    9    5   -0.000000   -0.000071
   -6    3    0   10    5    0.000584   -0.000000
   -6    3    0   11    5    0.000150    0.000000
   -6    3    0   12    5    0.000000   -0.000584
   -6    3    0   13    5   -0.001515    0.000000
   -6    3    0   14    5   -0.000000    0.001173
   -6    3    0   15    5    0.000000    0.000136
   -6    3    0   16    5    0.004455   -0.000000
   -6    3    0   17    5   -0.000087   -0.000000
   -6    3    0   18    5   -0.000000    0.003530
   -6    3    0   19    5   -0.001381    0.000000
   -6    3    0   20    5   -0.000000   -0.001425
   -6    3    0   21    5   -0.000000   -0.000318
   -6    3    0   22    5    0.001458   -0.000000
   -6    3    0    1    6    0.000000    0.000709
   -6    3    0    2    6    0.000000   -0.000000
   -6    3    0    3    6    0.003773   -0.000000
   -6    3    0    4    6   -0.000000    0.000220
   -6    3    0    5    6   -0.000000    0.003774
   -6    3    0    6    6   -0.000251    0.000000
   -6    3    0    7    6    0.000000   -0.001557
   -6    3    0    8    6   -0.000000    0.000000
   -6    3    0    9    6   -0.000584   -0.000000
   -6    3    0   10    6   -0.000000    0.000071
   -6    3    0   11    6   -0.000000   -0.000584
   -6    3    0   12    6    0.000150   -0.000000
   -6    3    0   13    6   -0.000000    0.001173
   -6    3    0   14    6   -0.001515   -0.000000
   -6    3    0   15    6   -0.004455   -0.000000
   -6    3    0   16    6   -0.000000   -0.000136
   -6    3    0   17    6   -0.000000    0.003530
   -6    3    0   18    6   -0.000087    0.000000
   -6    3    0   19    6   -0.000000   -0.001425
   -6    3    0   20    6   -0.001381    0.000000
   -6    3    0   21    6   -0.001458   -0.000000
   -6    3    0   22    6    0.000000    0.000318
   -6    3    0    1    7   -0.001218    0.000000
   -6    3    0    2    7    0.000000   -0.000000
   -6    3    0    3    7    0.000000    0.000000
   -6    3    0    4    7    0.000562    0.000000
   -6    3    0    5    7   -0.000000    0.000000
   -6    3    0    6    7    0.000000    0.000562
   -6    3    0    7    7    0.000999    0.000000
   -6    3    0    8    7   -0.000000    0.000000
   -6    3    0    9    7    0.000000   -0.000000
   -6    3    0   10    7    0.000335    0.000000
   -6    3    0   11    7   -0.000000   -0.000000
   -6    3    0   12    7    0.000000    0.000335
   -6    3    0   13    7   -0.000128    0.000000
   -6    3    0   14    7   -0.000000    0.000019
   -6    3    0   15    7   -0.000000    0.000045
   -6    3    0   16    7    0.000357    0.000000
   -6    3    0   17    7    0.000229   -0.000000
   -6    3    0   18    7    0.000000    0.000251
   -6    3    0   19    7    0.001566   -0.000000
   -6    3    0   20    7    0.000000    0.000392
   -6    3    0   21    7   -0.000000    0.000175
   -6    3    0   22    7   -0.000697    0.000000
   -6    3    0    1    8    0.000000   -0.000000
   -6    3    0    2    8   -0.001218   -0.000000
   -6    3    0    3    8   -0.000562   -0.000000
   -6    3    0    4    8    0.000000   -0.000000
   -6    3    0    5    8   -0.000000    0.000562
   -6    3    0    6    8   -0.000000    0.000000
   -6    3    0    7    8    0.000000    0.000000
   -6    3    0    8    8    0.000999    0.000000
   -6    3    0    9    8   -0.000335    0.000000
   -6    3    0   10    8   -0.000000   -0.000000
   -6    3    0   11    8    0.000000    0.000335
   -6    3    0   12    8   -0.000000   -0.000000
   -6    3    0   13    8   -0.000000    0.000019
   -6    3    0   14    8   -0.000128    0.000000
   -6    3    0   15    8   -0.000357   -0.000000
   -6    3    0   16    8    0.000000   -0.000045
   -6    3    0   17    8   -0.000000    0.000251
   -6    3    0   18    8    0.000229    0.000000
   -6    3    0   19    8    0.000000    0.000392
   -6    3    0   20    8    0.001566    0.000000
   -6    3    0   21    8    0.000697    0.000000
   -6    3    0   22    8   -0.000000   -0.000175
   -6    3    0    1    9   -0.000000   -0.000000
   -6    3    0    2    9   -0.001557   -0.000000
   -6    3    0    3    9    0.000151    0.000000
   -6    3    0    4    9   -0.000000   -0.000584
   -6    3    0    5    9   -0.000000    0.000071
   -6    3    0    6    9   -0.000584   -0.000000
   -6    3    0    7    9   -0.000000    0.000000
   -6    3    0    8    9    0.000709    0.000000
   -6    3    0    9    9   -0.000251    0.000000
   -6    3    0   10    9   -0.000000    0.003773
   -6    3    0   11    9    0.000000    0.000220
   -6    3    0   12    9    0.003773    0.000000
   -6    3    0   13    9    0.000000   -0.000039
   -6    3    0   14    9    0.000519    0.000000
   -6    3    0   15    9   -0.000030   -0.000000
   -6    3    0   16    9    0.000000   -0.002930
   -6    3    0   17    9    0.000000   -0.000248
   -6    3    0   18    9   -0.002595   -0.000000
   -6    3    0   19    9    0.000000   -0.000781
   -6    3    0   20    9    0.003159    0.000000
   -6    3    0   21    9    0.001751   -0.000000
   -6    3    0   22    9   -0.000000   -0.001678
   -6    3    0    1   10    0.001557   -0.000000
   -6    3    0    2   10   -0.000000    0.000000
   -6    3    0    3   10   -0.000000   -0.000584
   -6    3    0    4   10    0.000151    0.000000
   -6    3    0    5   10    0.000584    0.000000
   -6    3    0    6   10   -0.000000   -0.000071
   -6    3    0    7   10   -0.000709    0.000000
   -6    3    0    8   10   -0.000000   -0.000000
   -6    3    0    9   10    0.000000    0.003773
   -6    3    0   10   10   -0.000251   -0.000000
   -6    3    0   11   10   -0.003773    0.000000
   -6    3    0   12   10    0.000000   -0.000220
   -6    3    0   13   10   -0.000519   -0.000000
   -6    3    0   14   10    0.000000    0.000039
   -6    3    0   15   10   -0.000000   -0.002930
   -6    3    0   16   10   -0.000030    0.000000
   -6    3    0   17   10    0.002595   -0.000000
   -6    3    0   18   10   -0.000000    0.000248
   -6    3    0   19   10   -0.003159   -0.000000
   -6    3    0   20   10    0.000000    0.000781
   -6    3    0   21   10   -0.000000   -0.001678
   -6    3    0   22   10    0.001751    0.000000
   -6    3    0    1   11    0.000000   -0.000000
   -6    3    0    2   11    0.000000   -0.001557
   -6    3    0    3   11   -0.000000   -0.000071
   -6    3    0    4   11   -0.000584    0.000000
   -6    3    0    5   11    0.000151    0.000000
   -6    3    0    6   11   -0.000000    0.000584
   -6    3    0    7   11   -0.000000   -0.000000
   -6    3    0    8   11    0.000000    0.000709
   -6    3    0    9   11    0.000000   -0.000220
   -6    3    0   10   11    0.003773   -0.000000
   -6    3    0   11   11   -0.000251   -0.000000
   -6    3    0   12   11   -0.000000   -0.003774
   -6    3    0   13   11   -0.001515    0.000000
   -6    3    0   14   11    0.000000   -0.001173
   -6    3    0   15   11    0.000000   -0.000136
   -6    3    0   16   11    0.004455   -0.000000
   -6    3    0   17   11    0.000087    0.000000
   -6    3    0   18   11   -0.000000    0.003530
   -6    3    0   19   11   -0.001380    0.000000
   -6    3    0   20   11    0.000000    0.001425
   -6    3    0   21   11    0.000000   -0.000318
   -6    3    0   22   11   -0.001458   -0.000000
   -6    3    0    1   12   -0.000000   -0.001557
   -6    3    0    2   12    0.000000    0.000000
   -6    3    0    3   12    0.000584    0.000000
   -6    3    0    4   12    0.000000    0.000071
   -6    3    0    5   12    0.000000    0.000584
   -6    3    0    6   12    0.000151   -0.000000
   -6    3    0    7   12   -0.000000    0.000709
   -6    3    0    8   12   -0.000000    0.000000
   -6    3    0    9   12   -0.003773    0.000000
   -6    3    0   10   12    0.000000    0.000220
   -6    3    0   11   12    0.000000   -0.003774
   -6    3    0   12   12   -0.000251    0.000000
   -6    3    0   13   12    0.000000   -0.001173
   -6    3    0   14   12   -0.001515    0.000000
   -6    3    0   15   12   -0.004455    0.000000
   -6    3    0   16   12    0.000000    0.000136
   -6    3    0   17   12    0.000000    0.003530
   -6    3    0   18   12    0.000087    0.000000
   -6    3    0   19   12    0.000000    0.001425
   -6    3    0   20   12   -0.001380    0.000000
   -6    3    0   21   12    0.001458    0.000000
   -6    3    0   22   12    0.000000    0.000318
   -6    3    0    1   13    0.001312    0.000000
   -6    3    0    2   13    0.000000    0.000150
   -6    3    0    3   13   -0.000000   -0.000028
   -6    3    0    4   13    0.000062    0.000000
   -6    3    0    5   13    0.001322   -0.000000
   -6    3    0    6   13   -0.000000    0.000629
   -6    3    0    7   13   -0.001312   -0.000000
   -6    3    0    8   13    0.000000    0.000150
   -6    3    0    9   13   -0.000000   -0.000028
   -6    3    0   10   13   -0.000062   -0.000000
   -6    3    0   11   13    0.001322   -0.000000
   -6    3    0   12   13    0.000000   -0.000629
   -6    3    0   13   13    0.001363    0.000000
   -6    3    0   14   13   -0.000000    0.000000
   -6    3    0   15   13    0.000000    0.000000
   -6    3    0   16   13    0.000512   -0.000000
   -6    3    0   17   13   -0.000000   -0.000000
   -6    3    0   18   13   -0.000000    0.000512
   -6    3    0   19   13   -0.000000   -0.000000
   -6    3    0   20   13   -0.000000    0.000000
   -6    3    0   21   13    0.000000    0.000000
   -6    3    0   22   13    0.000000    0.000000
   -6    3    0    1   14    0.000000    0.000150
   -6    3    0    2   14    0.001312   -0.000000
   -6    3    0    3   14   -0.000062   -0.000000
   -6    3    0    4   14   -0.000000    0.000028
   -6    3    0    5   14   -0.000000    0.000629
   -6    3    0    6   14    0.001322   -0.000000
   -6    3    0    7   14    0.000000    0.000150
   -6    3    0    8   14   -0.001312   -0.000000
   -6    3    0    9   14    0.000062    0.000000
   -6    3    0   10   14    0.000000    0.000028
   -6    3    0   11   14    0.000000   -0.000629
   -6    3    0   12   14    0.001322    0.000000
   -6    3    0   13   14    0.000000   -0.000000
   -6    3    0   14   14    0.001363   -0.000000
   -6    3    0   15   14   -0.000512   -0.000000
   -6    3    0   16   14   -0.000000   -0.000000
   -6    3    0   17   14    0.000000    0.000512
   -6    3    0   18   14    0.000000   -0.000000
   -6    3    0   19   14    0.000000    0.000000
   -6    3    0   20   14   -0.000000    0.000000
   -6    3    0   21   14   -0.000000    0.000000
   -6    3    0   22   14    0.000000   -0.000000
   -6    3    0    1   15    0.000000    0.000026
   -6    3    0    2   15   -0.000680   -0.000000
   -6    3    0    3   15    0.000793   -0.000000
   -6    3    0    4   15    0.000000   -0.003461
   -6    3    0    5   15   -0.000000    0.000036
   -6    3    0    6   15    0.002493   -0.000000
   -6    3    0    7   15    0.000000    0.000026
   -6    3    0    8   15    0.000680    0.000000
   -6    3    0    9   15   -0.000793    0.000000
   -6    3    0   10   15    0.000000   -0.003461
   -6    3    0   11   15    0.000000   -0.000036
   -6    3    0   12   15    0.002493    0.000000
   -6    3    0   13   15   -0.000000   -0.000000
   -6    3    0   14   15    0.001719   -0.000000
   -6    3    0   15   15   -0.000230   -0.000000
   -6    3    0   16   15    0.000000   -0.000000
   -6    3    0   17   15   -0.000000   -0.000086
   -6    3    0   18   15   -0.000000    0.000000
   -6    3    0   19   15    0.000000    0.000000
   -6    3    0   20   15    0.002947   -0.000000
   -6    3    0   21   15   -0.000000   -0.000000
   -6    3    0   22   15    0.000000    0.002947
   -6    3    0    1   16    0.000680   -0.000000
   -6    3    0    2   16    0.000000   -0.000026
   -6    3    0    3   16   -0.000000   -0.003461
   -6    3    0    4   16    0.000793    0.000000
   -6    3    0    5   16   -0.002493    0.000000
   -6    3    0    6   16    0.000000   -0.000036
   -6    3    0    7   16   -0.000680    0.000000
   -6    3    0    8   16   -0.000000   -0.000026
   -6    3    0    9   16    0.000000   -0.003461
   -6    3    0   10   16   -0.000793   -0.000000
   -6    3    0   11   16   -0.002493   -0.000000
   -6    3    0   12   16   -0.000000    0.000036
   -6    3    0   13   16   -0.001719   -0.000000
   -6    3    0   14   16   -0.000000    0.000000
   -6    3    0   15   16   -0.000000   -0.000000
   -6    3    0   16   16   -0.000230    0.000000
   -6    3    0   17   16    0.000000    0.000000
   -6    3    0   18   16   -0.000000    0.000086
   -6    3    0   19   16   -0.002947    0.000000
   -6    3    0   20   16    0.000000   -0.000000
   -6    3    0   21   16   -0.000000    0.002947
   -6    3    0   22   16   -0.000000    0.000000
   -6    3    0    1   17    0.000037   -0.000000
   -6    3    0    2   17   -0.000000    0.001765
   -6    3    0    3   17   -0.000000    0.000107
   -6    3    0    4   17   -0.003060   -0.000000
   -6    3    0    5   17   -0.000230   -0.000000
   -6    3    0    6   17   -0.000000    0.001843
   -6    3    0    7   17    0.000037    0.000000
   -6    3    0    8   17    0.000000   -0.001765
   -6    3    0    9   17   -0.000000   -0.000107
   -6    3    0   10   17   -0.003060   -0.000000
   -6    3    0   11   17    0.000230    0.000000
   -6    3    0   12   17    0.000000    0.001843
   -6    3    0   13   17    0.000000   -0.000000
   -6    3    0   14   17   -0.000000    0.001719
   -6    3    0   15   17    0.000000    0.000086
   -6    3    0   16   17   -0.000000    0.000000
   -6    3    0   17   17   -0.000230    0.000000
   -6    3    0   18   17    0.000000    0.000000
   -6    3    0   19   17   -0.000000   -0.000000
   -6    3    0   20   17   -0.000000   -0.002947
   -6    3    0   21   17   -0.000000   -0.000000
   -6    3    0   22   17    0.002947   -0.000000
   -6    3    0    1   18   -0.000000    0.001765
   -6    3    0    2   18    0.000037   -0.000000
   -6    3    0    3   18    0.003060   -0.000000
   -6    3    0    4   18   -0.000000   -0.000107
   -6    3    0    5   18    0.000000    0.001843
   -6    3    0    6   18   -0.000230   -0.000000
   -6    3    0    7   18    0.000000   -0.001765
   -6    3    0    8   18    0.000037   -0.000000
   -6    3    0    9   18    0.003060   -0.000000
   -6    3    0   10   18    0.000000    0.000107
   -6    3    0   11   18   -0.000000    0.001843
   -6    3    0   12   18    0.000230   -0.000000
   -6    3    0   13   18   -0.000000    0.001719
   -6    3    0   14   18   -0.000000   -0.000000
   -6    3    0   15   18    0.000000   -0.000000
   -6    3    0   16   18    0.000000   -0.000086
   -6    3    0   17   18    0.000000    0.000000
   -6    3    0   18   18   -0.000230   -0.000000
   -6    3    0   19   18   -0.000000   -0.002947
   -6    3    0   20   18   -0.000000    0.000000
   -6    3    0   21   18   -0.002947   -0.000000
   -6    3    0   22   18    0.000000    0.000000
   -6    3    0    1   19   -0.001534    0.000000
   -6    3    0    2   19   -0.000000    0.000062
   -6    3    0    3   19   -0.000000   -0.000703
   -6    3    0    4   19   -0.001782   -0.000000
   -6    3    0    5   19   -0.000352   -0.000000
   -6    3    0    6   19    0.000000   -0.001281
   -6    3    0    7   19    0.001534    0.000000
   -6    3    0    8   19    0.000000    0.000062
   -6    3    0    9   19    0.000000   -0.000703
   -6    3    0   10   19    0.001782    0.000000
   -6    3    0   11   19   -0.000352   -0.000000
   -6    3    0   12   19    0.000000    0.001281
   -6    3    0   13   19    0.000000    0.000000
   -6    3    0   14   19   -0.000000   -0.000000
   -6    3    0   15   19   -0.000000    0.000000
   -6    3    0   16   19    0.001765   -0.000000
   -6    3    0   17   19   -0.000000    0.000000
   -6    3    0   18   19    0.000000   -0.001766
   -6    3    0   19   19    0.000836    0.000000
   -6    3    0   20   19    0.000000   -0.000000
   -6    3    0   21   19   -0.000000    0.000427
   -6    3    0   22   19    0.000000   -0.000000
   -6    3    0    1   20    0.000000    0.000062
   -6    3    0    2   20   -0.001534    0.000000
   -6    3    0    3   20    0.001782   -0.000000
   -6    3    0    4   20   -0.000000    0.000703
   -6    3    0    5   20   -0.000000   -0.001281
   -6    3    0    6   20   -0.000352   -0.000000
   -6    3    0    7   20   -0.000000    0.000062
   -6    3    0    8   20    0.001534    0.000000
   -6    3    0    9   20   -0.001782    0.000000
   -6    3    0   10   20    0.000000    0.000703
   -6    3    0   11   20    0.000000    0.001281
   -6    3    0   12   20   -0.000352    0.000000
   -6    3    0   13   20    0.000000    0.000000
   -6    3    0   14   20    0.000000   -0.000000
   -6    3    0   15   20   -0.001765   -0.000000
   -6    3    0   16   20   -0.000000   -0.000000
   -6    3    0   17   20    0.000000   -0.001766
   -6    3    0   18   20   -0.000000   -0.000000
   -6    3    0   19   20    0.000000   -0.000000
   -6    3    0   20   20    0.000836   -0.000000
   -6    3    0   21   20    0.000000    0.000000
   -6    3    0   22   20   -0.000000   -0.000427
   -6    3    0    1   21   -0.000000    0.000385
   -6    3    0    2   21   -0.000037    0.000000
   -6    3    0    3   21   -0.000184   -0.000000
   -6    3    0    4   21   -0.000000    0.001593
   -6    3    0    5   21   -0.000000   -0.000016
   -6    3    0    6   21    0.001286    0.000000
   -6    3    0    7   21   -0.000000   -0.000385
   -6    3    0    8   21   -0.000037   -0.000000
   -6    3    0    9   21   -0.000184    0.000000
   -6    3    0   10   21    0.000000   -0.001593
   -6    3    0   11   21    0.000000   -0.000016
   -6    3    0   12   21   -0.001286   -0.000000
   -6    3    0   13   21   -0.000000   -0.000000
   -6    3    0   14   21    0.000000    0.000000
   -6    3    0   15   21   -0.000000    0.000000
   -6    3    0   16   21   -0.000000    0.001766
   -6    3    0   17   21    0.000000   -0.000000
   -6    3    0   18   21    0.001766    0.000000
   -6    3    0   19   21    0.000000   -0.000427
   -6    3    0   20   21    0.000000   -0.000000
   -6    3    0   21   21    0.000836    0.000000
   -6    3    0   22   21   -0.000000    0.000000
   -6    3    0    1   22    0.000037    0.000000
   -6    3    0    2   22   -0.000000   -0.000385
   -6    3    0    3   22    0.000000    0.001593
   -6    3    0    4   22   -0.000184    0.000000
   -6    3    0    5   22   -0.001286    0.000000
   -6    3    0    6   22    0.000000    0.000016
   -6    3    0    7   22    0.000037   -0.000000
   -6    3    0    8   22   -0.000000    0.000385
   -6    3    0    9   22   -0.000000   -0.001593
   -6    3    0   10   22   -0.000184    0.000000
   -6    3    0   11   22    0.001286   -0.000000
   -6    3    0   12   22    0.000000    0.000016
   -6    3    0   13   22   -0.000000   -0.000000
   -6    3    0   14   22    0.000000    0.000000
   -6    3    0   15   22   -0.000000    0.001766
   -6    3    0   16   22   -0.000000   -0.000000
   -6    3    0   17   22   -0.001766   -0.000000
   -6    3    0   18   22    0.000000    0.000000
   -6    3    0   19   22   -0.000000    0.000000
   -6    3    0   20   22    0.000000    0.000427
   -6    3    0   21   22   -0.000000    0.000000
   -6    3    0   22   22    0.000836   -0.000000
   -5    1    0    1    1    0.000796   -0.000000
   -5    1    0    2    1   -0.000301    0.000174
   -5    1    0    3    1    0.000147    0.000011
   -5    1    0    4    1   -0.000607   -0.000083
   -5    1    0    5    1   -0.000085    0.000018
   -5    1    0    6    1   -0.000083   -0.000703
   -5    1    0    7    1   -0.000250    0.000000
   -5    1    0    8    1    0.000440   -0.000254
   -5    1    0    9    1    0.000051   -0.000007
   -5    1    0   10    1    0.000462    0.000330
   -5    1    0   11    1   -0.000030   -0.000012
   -5    1    0   12    1    0.000330    0.000843
   -5    1    0   13    1    0.000220   -0.000188
   -5    1    0   14    1    0.000006    0.000043
   -5    1    0   15    1    0.000140    0.000016
   -5    1    0   16    1    0.000232   -0.000442
   -5    1    0   17    1   -0.000399    0.000080
   -5    1    0   18    1   -0.000381   -0.000907
   -5    1    0   19    1   -0.000606   -0.000133
   -5    1    0   20    1    0.000225   -0.000163
   -5    1    0   21    1   -0.000062    0.000001
   -5    1    0   22    1   -0.000340    0.000067
   -5    1    0    1    2    0.000301    0.000174
   -5    1    0    2    2    0.000796    0.000000
   -5    1    0    3    2    0.000607   -0.000083
   -5    1    0    4    2    0.000147   -0.000011
   -5    1    0    5    2    0.000083   -0.000703
   -5    1    0    6    2   -0.000085   -0.000018
   -5    1    0    7    2   -0.000440   -0.000254
   -5    1    0    8    2   -0.000250   -0.000000
   -5    1    0    9    2   -0.000462    0.000330
   -5    1    0   10    2    0.000051    0.000007
   -5    1    0   11    2   -0.000330    0.000843
   -5    1    0   12    2   -0.000030    0.000012
   -5    1    0   13    2   -0.000006    0.000043
   -5    1    0   14    2    0.000220    0.000188
   -5    1    0   15    2   -0.000232   -0.000442
   -5    1    0   16    2    0.000140   -0.000016
   -5    1    0   17    2    0.000381   -0.000907
   -5    1    0   18    2   -0.000399   -0.000080
   -5    1    0   19    2   -0.000225   -0.000163
   -5    1    0   20    2   -0.000606    0.000133
   -5    1    0   21    2    0.000340    0.000067
   -5    1    0   22    2   -0.000062   -0.000001
   -5    1    0    1    3    0.000310    0.000042
   -5    1    0    2    3   -0.000602    0.000638
   -5    1    0    3    3   -0.000134    0.000064
   -5    1    0    4    3   -0.002016    0.001716
   -5    1    0    5    3    0.000075    0.000188
   -5    1    0    6    3    0.003479   -0.002312
   -5    1    0    7    3   -0.000367   -0.000047
   -5    1    0    8    3    0.000643   -0.000665
   -5    1    0    9    3    0.000406   -0.000105
   -5    1    0   10    3    0.000099    0.000240
   -5    1    0   11    3    0.001165    0.000040
   -5    1    0   12    3    0.002213    0.003394
   -5    1    0   13    3    0.000285   -0.000060
   -5    1    0   14    3    0.000694    0.000591
   -5    1    0   15    3   -0.001166    0.000155
   -5    1    0   16    3   -0.001855    0.000812
   -5    1    0   17    3   -0.000846   -0.000156
   -5    1    0   18    3    0.000983   -0.003748
   -5    1    0   19    3   -0.000070    0.000054
   -5    1    0   20    3    0.002830   -0.000732
   -5    1    0   21    3    0.000622   -0.000140
   -5    1    0   22    3    0.000878   -0.000708
   -5    1    0    1    4    0.000602    0.000638
   -5    1    0    2    4    0.000310   -0.000042
   -5    1    0    3    4    0.002016    0.001716
   -5    1    0    4    4   -0.000134   -0.000064
   -5    1    0    5    4   -0.003479   -0.002312
   -5    1    0    6    4    0.000075   -0.000188
   -5    1    0    7    4   -0.000643   -0.000665
   -5    1    0    8    4   -0.000367    0.000047
   -5    1    0    9    4   -0.000099    0.000240
   -5    1    0   10    4    0.000406    0.000105
   -5    1    0   11    4   -0.002213    0.003394
   -5    1    0   12    4    0.001165   -0.000040
   -5    1    0   13    4   -0.000694    0.000591
   -5    1    0   14    4    0.000285    0.000060
   -5    1    0   15    4    0.001855    0.000812
   -5    1    0   16    4   -0.001166   -0.000155
   -5    1    0   17    4   -0.000983   -0.003748
   -5    1    0   18    4   -0.000846    0.000156
   -5    1    0   19    4   -0.002830   -0.000732
   -5    1    0   20    4   -0.000070   -0.000054
   -5    1    0   21    4   -0.000878   -0.000708
   -5    1    0   22    4    0.000622    0.000140
   -5    1    0    1    5   -0.000179    0.000073
   -5    1    0    2    5    0.000638    0.000134
   -5    1    0    3    5    0.000075   -0.000115
   -5    1    0    4    5    0.004018   -0.001379
   -5    1    0    5    5   -0.000047   -0.000064
   -5    1    0    6    5    0.001675   -0.001519
   -5    1    0    7    5    0.000212   -0.000082
   -5    1    0    8    5   -0.000665   -0.000125
   -5    1    0    9    5    0.001165   -0.000162
   -5    1    0   10    5   -0.001684   -0.003356
   -5    1    0   11    5    0.001751    0.000105
   -5    1    0   12    5    0.000060   -0.000332
   -5    1    0   13    5    0.000483   -0.000233
   -5    1    0   14    5    0.000529   -0.000129
   -5    1    0   15    5   -0.000130   -0.000133
   -5    1    0   16    5   -0.004421    0.001408
   -5    1    0   17    5   -0.000867   -0.000083
   -5    1    0   18    5    0.001343   -0.000835
   -5    1    0   19    5    0.000552   -0.000026
   -5    1    0   20    5   -0.001076    0.000478
   -5    1    0   21    5    0.002046    0.000321
   -5    1    0   22    5   -0.000568    0.002085
   -5    1    0    1    6   -0.000638    0.000134
   -5    1    0    2    6   -0.000179   -0.000073
   -5    1    0    3    6   -0.004018   -0.001379
   -5    1    0    4    6    0.000075    0.000115
   -5    1    0    5    6   -0.001675   -0.001519
   -5    1    0    6    6   -0.000047    0.000064
   -5    1    0    7    6    0.000665   -0.000125
   -5    1    0    8    6    0.000212    0.000082
   -5    1    0    9    6    0.001684   -0.003356
   -5    1    0   10    6    0.001165    0.000162
   -5    1    0   11    6   -0.000060   -0.000332
   -5    1    0   12    6    0.001751   -0.000105
   -5    1    0   13    6   -0.000529   -0.000129
   -5    1    0   14    6    0.000483    0.000233
   -5    1    0   15    6    0.004421    0.001408
   -5    1    0   16    6   -0.000130    0.000133
   -5    1    0   17    6   -0.001343   -0.000835
   -5    1    0   18    6   -0.000867    0.000083
   -5    1    0   19    6    0.001076    0.000478
   -5    1    0   20    6    0.000552    0.000026
   -5    1    0   21    6    0.000568    0.002085
   -5    1    0   22    6    0.002046   -0.000321
   -5    1    0    1    7   -0.000250    0.000000
   -5    1    0    2    7   -0.000440    0.000254
   -5    1    0    3    7   -0.000051    0.000007
   -5    1    0    4    7    0.000462    0.000330
   -5    1    0    5    7    0.000030    0.000012
   -5    1    0    6    7    0.000330    0.000843
   -5    1    0    7    7    0.000796   -0.000000
   -5    1    0    8    7    0.000301   -0.000174
   -5    1    0    9    7   -0.000147   -0.000011
   -5    1    0   10    7   -0.000607   -0.000083
   -5    1    0   11    7    0.000085   -0.000018
   -5    1    0   12    7   -0.000083   -0.000703
   -5    1    0   13    7   -0.000220    0.000188
   -5    1    0   14    7    0.000006    0.000043
   -5    1    0   15    7    0.000140    0.000016
   -5    1    0   16    7   -0.000232    0.000442
   -5    1    0   17    7   -0.000399    0.000080
   -5    1    0   18    7    0.000381    0.000907
   -5    1    0   19    7    0.000606    0.000133
   -5    1    0   20    7    0.000225   -0.000163
   -5    1    0   21    7    0.000062   -0.000001
   -5    1    0   22    7   -0.000340    0.000067
   -5    1    0    1    8    0.000440    0.000254
   -5    1    0    2    8   -0.000250   -0.000000
   -5    1    0    3    8   -0.000462    0.000330
   -5    1    0    4    8   -0.000051   -0.000007
   -5    1    0    5    8   -0.000330    0.000843
   -5    1    0    6    8    0.000030   -0.000012
   -5    1    0    7    8   -0.000301   -0.000174
   -5    1    0    8    8    0.000796    0.000000
   -5    1    0    9    8    0.000607   -0.000083
   -5    1    0   10    8   -0.000147    0.000011
   -5    1    0   11    8    0.000083   -0.000703
   -5    1    0   12    8    0.000085    0.000018
   -5    1    0   13    8   -0.000006    0.000043
   -5    1    0   14    8   -0.000220   -0.000188
   -5    1    0   15    8    0.000232    0.000442
   -5    1    0   16    8    0.000140   -0.000016
   -5    1    0   17    8   -0.000381    0.000907
   -5    1    0   18    8   -0.000399   -0.000080
   -5    1    0   19    8   -0.000225   -0.000163
   -5    1    0   20    8    0.000606   -0.000133
   -5    1    0   21    8    0.000340    0.000067
   -5    1    0   22    8    0.000062    0.000001
   -5    1    0    1    9    0.000367    0.000047
   -5    1    0    2    9    0.000643   -0.000665
   -5    1    0    3    9    0.000406   -0.000105
   -5    1    0    4    9   -0.000099   -0.000240
   -5    1    0    5    9    0.001165    0.000040
   -5    1    0    6    9   -0.002213   -0.003394
   -5    1    0    7    9   -0.000310   -0.000042
   -5    1    0    8    9   -0.000602    0.000638
   -5    1    0    9    9   -0.000134    0.000064
   -5    1    0   10    9    0.002016   -0.001716
   -5    1    0   11    9    0.000075    0.000188
   -5    1    0   12    9   -0.003479    0.002312
   -5    1    0   13    9    0.000285   -0.000060
   -5    1    0   14    9   -0.000694   -0.000591
   -5    1    0   15    9    0.001167   -0.000155
   -5    1    0   16    9   -0.001855    0.000812
   -5    1    0   17    9    0.000846    0.000156
   -5    1    0   18    9    0.000983   -0.003748
   -5    1    0   19    9   -0.000070    0.000054
   -5    1    0   20    9   -0.002830    0.000732
   -5    1    0   21    9    0.000622   -0.000140
   -5    1    0   22    9   -0.000878    0.000708
   -5    1    0    1   10   -0.000643   -0.000665
   -5    1    0    2   10    0.000367   -0.000047
   -5    1    0    3   10    0.000099   -0.000240
   -5    1    0    4   10    0.000406    0.000105
   -5    1    0    5   10    0.002213   -0.003394
   -5    1    0    6   10    0.001165   -0.000040
   -5    1    0    7   10    0.000602    0.000638
   -5    1    0    8   10   -0.000310    0.000042
   -5    1    0    9   10   -0.002016   -0.001716
   -5    1    0   10   10   -0.000134   -0.000064
   -5    1    0   11   10    0.003479    0.002312
   -5    1    0   12   10    0.000075   -0.000188
   -5    1    0   13   10    0.000694   -0.000591
   -5    1    0   14   10    0.000285    0.000060
   -5    1    0   15   10    0.001855    0.000812
   -5    1    0   16   10    0.001167    0.000155
   -5    1    0   17   10   -0.000983   -0.003748
   -5    1    0   18   10    0.000846   -0.000156
   -5    1    0   19   10    0.002830    0.000732
   -5    1    0   20   10   -0.000070   -0.000054
   -5    1    0   21   10    0.000878    0.000708
   -5    1    0   22   10    0.000622    0.000140
   -5    1    0    1   11   -0.000212    0.000082
   -5    1    0    2   11   -0.000665   -0.000125
   -5    1    0    3   11    0.001165   -0.000162
   -5    1    0    4   11    0.001685    0.003356
   -5    1    0    5   11    0.001751    0.000105
   -5    1    0    6   11   -0.000060    0.000332
   -5    1    0    7   11    0.000179   -0.000073
   -5    1    0    8   11    0.000638    0.000134
   -5    1    0    9   11    0.000075   -0.000115
   -5    1    0   10   11   -0.004018    0.001379
   -5    1    0   11   11   -0.000047   -0.000064
   -5    1    0   12   11   -0.001675    0.001519
   -5    1    0   13   11    0.000483   -0.000233
   -5    1    0   14   11   -0.000529    0.000129
   -5    1    0   15   11    0.000130    0.000133
   -5    1    0   16   11   -0.004421    0.001408
   -5    1    0   17   11    0.000867    0.000083
   -5    1    0   18   11    0.001343   -0.000835
   -5    1    0   19   11    0.000552   -0.000026
   -5    1    0   20   11    0.001076   -0.000478
   -5    1    0   21   11    0.002046    0.000321
   -5    1    0   22   11    0.000568   -0.002085
   -5    1    0    1   12    0.000665   -0.000125
   -5    1    0    2   12   -0.000212   -0.000082
   -5    1    0    3   12   -0.001685    0.003356
   -5    1    0    4   12    0.001165    0.000162
   -5    1    0    5   12    0.000060    0.000332
   -5    1    0    6   12    0.001751   -0.000105
   -5    1    0    7   12   -0.000638    0.000134
   -5    1    0    8   12    0.000179    0.000073
   -5    1    0    9   12    0.004018    0.001379
   -5    1    0   10   12    0.000075    0.000115
   -5    1    0   11   12    0.001675    0.001519
   -5    1    0   12   12   -0.000047    0.000064
   -5    1    0   13   12    0.000529    0.000129
   -5    1    0   14   12    0.000483    0.000233
   -5    1    0   15   12    0.004421    0.001408
   -5    1    0   16   12    0.000130   -0.000133
   -5    1    0   17   12   -0.001343   -0.000835
   -5    1    0   18   12    0.000867   -0.000083
   -5    1    0   19   12   -0.001076   -0.000478
   -5    1    0   20   12    0.000552    0.000026
   -5    1    0   21   12   -0.000568   -0.002085
   -5    1    0   22   12    0.002046   -0.000321
   -5    1    0    1   13   -0.000919   -0.000037
   -5    1    0    2   13   -0.000134   -0.000163
   -5    1    0    3   13   -0.002000    0.000014
   -5    1    0    4   13    0.000228    0.000148
   -5    1    0    5   13   -0.001668   -0.000020
   -5    1    0    6   13    0.000175   -0.000538
   -5    1    0    7   13    0.000919    0.000037
   -5    1    0    8   13   -0.000134   -0.000163
   -5    1    0    9   13   -0.002000    0.000014
   -5    1    0   10   13   -0.000228   -0.000148
   -5    1    0   11   13   -0.001668   -0.000020
   -5    1    0   12   13   -0.000175    0.000538
   -5    1    0   13   13    0.000586    0.000000
   -5    1    0   14   13   -0.000000    0.000000
   -5    1    0   15   13   -0.000000   -0.000000
   -5    1    0   16   13   -0.000903    0.000232
   -5    1    0   17   13    0.000000   -0.000000
   -5    1    0   18   13    0.000232   -0.000635
   -5    1    0   19   13   -0.000096    0.000125
   -5    1    0   20   13   -0.000000   -0.000000
   -5    1    0   21   13    0.000167    0.000072
   -5    1    0   22   13   -0.000000   -0.000000
   -5    1    0    1   14    0.000134   -0.000163
   -5    1    0    2   14   -0.000919    0.000037
   -5    1    0    3   14   -0.000228    0.000148
   -5    1    0    4   14   -0.002000   -0.000014
   -5    1    0    5   14   -0.000175   -0.000538
   -5    1    0    6   14   -0.001668    0.000020
   -5    1    0    7   14    0.000134   -0.000163
   -5    1    0    8   14    0.000919   -0.000037
   -5    1    0    9   14    0.000228   -0.000148
   -5    1    0   10   14   -0.002000   -0.000014
   -5    1    0   11   14    0.000175    0.000538
   -5    1    0   12   14   -0.001668    0.000020
   -5    1    0   13   14    0.000000    0.000000
   -5    1    0   14   14    0.000586   -0.000000
   -5    1    0   15   14    0.000903    0.000232
   -5    1    0   16   14   -0.000000    0.000000
   -5    1    0   17   14   -0.000232   -0.000635
   -5    1    0   18   14    0.000000    0.000000
   -5    1    0   19   14    0.000000   -0.000000
   -5    1    0   20   14   -0.000096   -0.000125
   -5    1    0   21   14    0.000000   -0.000000
   -5    1    0   22   14    0.000167   -0.000072
   -5    1    0    1   15    0.000121   -0.000096
   -5    1    0    2   15    0.001204    0.001099
   -5    1    0    3   15   -0.000785    0.000087
   -5    1    0    4   15   -0.000017    0.000841
   -5    1    0    5   15   -0.000764   -0.000066
   -5    1    0    6   15   -0.003569    0.001074
   -5    1    0    7   15    0.000121   -0.000096
   -5    1    0    8   15   -0.001204   -0.001099
   -5    1    0    9   15    0.000785   -0.000087
   -5    1    0   10   15   -0.000017    0.000841
   -5    1    0   11   15    0.000764    0.000066
   -5    1    0   12   15   -0.003569    0.001074
   -5    1    0   13   15   -0.000000   -0.000000
   -5    1    0   14   15   -0.000971    0.000785
   -5    1    0   15   15    0.000234    0.000131
   -5    1    0   16   15    0.000000    0.000000
   -5    1    0   17   15   -0.000217    0.000133
   -5    1    0   18   15    0.000000    0.000000
   -5    1    0   19   15    0.000000   -0.000000
   -5    1    0   20   15   -0.002967   -0.001414
   -5    1    0   21   15   -0.000000   -0.000000
   -5    1    0   22   15    0.000018    0.000030
   -5    1    0    1   16   -0.001204    0.001099
   -5    1    0    2   16    0.000121    0.000096
   -5    1    0    3   16    0.000017    0.000841
   -5    1    0    4   16   -0.000785   -0.000087
   -5    1    0    5   16    0.003569    0.001074
   -5    1    0    6   16   -0.000764    0.000066
   -5    1    0    7   16    0.001204   -0.001099
   -5    1    0    8   16    0.000121    0.000096
   -5    1    0    9   16    0.000017    0.000841
   -5    1    0   10   16    0.000785    0.000087
   -5    1    0   11   16    0.003569    0.001074
   -5    1    0   12   16    0.000764   -0.000066
   -5    1    0   13   16    0.000971    0.000785
   -5    1    0   14   16   -0.000000    0.000000
   -5    1    0   15   16   -0.000000    0.000000
   -5    1    0   16   16    0.000234   -0.000131
   -5    1    0   17   16   -0.000000    0.000000
   -5    1    0   18   16   -0.000217   -0.000133
   -5    1    0   19   16    0.002967   -0.001414
   -5    1    0   20   16    0.000000    0.000000
   -5    1    0   21   16   -0.000018    0.000030
   -5    1    0   22   16   -0.000000    0.000000
   -5    1    0    1   17   -0.000061    0.000040
   -5    1    0    2   17    0.001345   -0.000252
   -5    1    0    3   17   -0.000413   -0.000124
   -5    1    0    4   17    0.001623   -0.003901
   -5    1    0    5   17   -0.000683   -0.000041
   -5    1    0    6   17    0.001097   -0.001285
   -5    1    0    7   17   -0.000061    0.000041
   -5    1    0    8   17   -0.001345    0.000252
   -5    1    0    9   17    0.000413    0.000124
   -5    1    0   10   17    0.001623   -0.003901
   -5    1    0   11   17    0.000683    0.000040
   -5    1    0   12   17    0.001097   -0.001285
   -5    1    0   13   17    0.000000   -0.000000
   -5    1    0   14   17    0.000785   -0.000064
   -5    1    0   15   17   -0.000217    0.000019
   -5    1    0   16   17    0.000000   -0.000000
   -5    1    0   17   17   -0.000016   -0.000131
   -5    1    0   18   17    0.000000   -0.000000
   -5    1    0   19   17    0.000000   -0.000000
   -5    1    0   20   17   -0.001880    0.001045
   -5    1    0   21   17    0.000000    0.000000
   -5    1    0   22   17   -0.000239    0.003312
   -5    1    0    1   18   -0.001345   -0.000252
   -5    1    0    2   18   -0.000061   -0.000040
   -5    1    0    3   18   -0.001623   -0.003901
   -5    1    0    4   18   -0.000413    0.000124
   -5    1    0    5   18   -0.001097   -0.001285
   -5    1    0    6   18   -0.000683    0.000041
   -5    1    0    7   18    0.001345    0.000252
   -5    1    0    8   18   -0.000061   -0.000041
   -5    1    0    9   18   -0.001623   -0.003901
   -5    1    0   10   18    0.000413   -0.000124
   -5    1    0   11   18   -0.001097   -0.001285
   -5    1    0   12   18    0.000683   -0.000040
   -5    1    0   13   18   -0.000785   -0.000064
   -5    1    0   14   18    0.000000    0.000000
   -5    1    0   15   18   -0.000000   -0.000000
   -5    1    0   16   18   -0.000217   -0.000019
   -5    1    0   17   18   -0.000000   -0.000000
   -5    1    0   18   18   -0.000016    0.000131
   -5    1    0   19   18    0.001880    0.001045
   -5    1    0   20   18    0.000000   -0.000000
   -5    1    0   21   18    0.000239    0.003312
   -5    1    0   22   18    0.000000   -0.000000
   -5    1    0    1   19   -0.001750    0.000272
   -5    1    0    2   19   -0.000330    0.000005
   -5    1    0    3   19   -0.000811    0.000298
   -5    1    0    4   19    0.002177   -0.000794
   -5    1    0    5   19   -0.001168    0.000238
   -5    1    0    6   19   -0.000481    0.000379
   -5    1    0    7   19    0.001750   -0.000272
   -5    1    0    8   19   -0.000330    0.000005
   -5    1    0    9   19   -0.000811    0.000298
   -5    1    0   10   19   -0.002177    0.000794
   -5    1    0   11   19   -0.001168    0.000238
   -5    1    0   12   19    0.000481   -0.000379
   -5    1    0   13   19   -0.000229    0.000178
   -5    1    0   14   19   -0.000000   -0.000000
   -5    1    0   15   19   -0.000000   -0.000000
   -5    1    0   16   19   -0.002534   -0.000439
   -5    1    0   17   19   -0.000000    0.000000
   -5    1    0   18   19   -0.000159    0.000538
   -5    1    0   19   19    0.000619   -0.000374
   -5    1    0   20   19   -0.000000   -0.000000
   -5    1    0   21   19    0.001851    0.000164
   -5    1    0   22   19   -0.000000    0.000000
   -5    1    0    1   20    0.000330    0.000005
   -5    1    0    2   20   -0.001750   -0.000272
   -5    1    0    3   20   -0.002177   -0.000794
   -5    1    0    4   20   -0.000811   -0.000298
   -5    1    0    5   20    0.000481    0.000379
   -5    1    0    6   20   -0.001168   -0.000238
   -5    1    0    7   20    0.000330    0.000005
   -5    1    0    8   20    0.001750    0.000272
   -5    1    0    9   20    0.002177    0.000794
   -5    1    0   10   20   -0.000811   -0.000298
   -5    1    0   11   20   -0.000481   -0.000379
   -5    1    0   12   20   -0.001168   -0.000238
   -5    1    0   13   20    0.000000   -0.000000
   -5    1    0   14   20   -0.000229   -0.000178
   -5    1    0   15   20    0.002534   -0.000439
   -5    1    0   16   20   -0.000000    0.000000
   -5    1    0   17   20    0.000159    0.000538
   -5    1    0   18   20   -0.000000   -0.000000
   -5    1    0   19   20    0.000000   -0.000000
   -5    1    0   20   20    0.000619    0.000374
   -5    1    0   21   20    0.000000    0.000000
   -5    1    0   22   20    0.001851   -0.000164
   -5    1    0    1   21    0.000492   -0.000070
   -5    1    0    2   21   -0.000032    0.000133
   -5    1    0    3   21    0.000828   -0.000218
   -5    1    0    4   21    0.000246   -0.000610
   -5    1    0    5   21    0.000877    0.000355
   -5    1    0    6   21   -0.000780    0.001854
   -5    1    0    7   21   -0.000492    0.000070
   -5    1    0    8   21   -0.000032    0.000133
   -5    1    0    9   21    0.000828   -0.000218
   -5    1    0   10   21   -0.000246    0.000610
   -5    1    0   11   21    0.000877    0.000355
   -5    1    0   12   21    0.000780   -0.001854
   -5    1    0   13   21    0.000396    0.000102
   -5    1    0   14   21   -0.000000   -0.000000
   -5    1    0   15   21   -0.000000   -0.000000
   -5    1    0   16   21    0.001430   -0.001271
   -5    1    0   17   21   -0.000000    0.000000
   -5    1    0   18   21   -0.001110    0.002028
   -5    1    0   19   21    0.001851    0.000268
   -5    1    0   20   21   -0.000000    0.000000
   -5    1    0   21   21   -0.001518    0.000374
   -5    1    0   22   21    0.000000    0.000000
   -5    1    0    1   22    0.000032    0.000133
   -5    1    0    2   22    0.000492    0.000070
   -5    1    0    3   22   -0.000246   -0.000610
   -5    1    0    4   22    0.000828    0.000218
   -5    1    0    5   22    0.000780    0.001854
   -5    1    0    6   22    0.000877   -0.000355
   -5    1    0    7   22    0.000032    0.000133
   -5    1    0    8   22   -0.000492   -0.000070
   -5    1    0    9   22    0.000246    0.000610
   -5    1    0   10   22    0.000828    0.000218
   -5    1    0   11   22   -0.000780   -0.001854
   -5    1    0   12   22    0.000877   -0.000355
   -5    1    0   13   22    0.000000   -0.000000
   -5    1    0   14   22    0.000396   -0.000102
   -5    1    0   15   22   -0.001430   -0.001271
   -5    1    0   16   22   -0.000000    0.000000
   -5    1    0   17   22    0.001110    0.002028
   -5    1    0   18   22   -0.000000   -0.000000
   -5    1    0   19   22    0.000000    0.000000
   -5    1    0   20   22    0.001851   -0.000268
   -5    1    0   21   22   -0.000000    0.000000
   -5    1    0   22   22   -0.001518   -0.000374
   -5    2    0    1    1   -0.000913    0.000017
   -5    2    0    2    1   -0.000174   -0.000425
   -5    2    0    3    1   -0.000552    0.000012
   -5    2    0    4    1   -0.000619    0.000040
   -5    2    0    5    1   -0.000016   -0.000006
   -5    2    0    6    1    0.000268    0.000388
   -5    2    0    7    1    0.000952   -0.000007
   -5    2    0    8    1   -0.000204   -0.000041
   -5    2    0    9    1   -0.000566    0.000082
   -5    2    0   10    1   -0.000493   -0.000207
   -5    2    0   11    1   -0.000176    0.000029
   -5    2    0   12    1   -0.000537    0.000017
   -5    2    0   13    1   -0.000591   -0.000000
   -5    2    0   14    1   -0.000051    0.000030
   -5    2    0   15    1   -0.000093   -0.000009
   -5    2    0   16    1   -0.000153    0.000794
   -5    2    0   17    1    0.000054   -0.000016
   -5    2    0   18    1    0.000794    0.000764
   -5    2    0   19    1    0.000229    0.000159
   -5    2    0   20    1   -0.000281    0.000317
   -5    2    0   21    1   -0.000397    0.000092
   -5    2    0   22    1    0.000642   -0.000281
   -5    2    0    1    2    0.000174   -0.000425
   -5    2    0    2    2   -0.000913   -0.000017
   -5    2    0    3    2    0.000619    0.000040
   -5    2    0    4    2   -0.000552   -0.000012
   -5    2    0    5    2   -0.000268    0.000388
   -5    2    0    6    2   -0.000016    0.000006
   -5    2    0    7    2    0.000204   -0.000041
   -5    2    0    8    2    0.000952    0.000007
   -5    2    0    9    2    0.000493   -0.000207
   -5    2    0   10    2   -0.000566   -0.000082
   -5    2    0   11    2    0.000537    0.000017
   -5    2    0   12    2   -0.000176   -0.000029
   -5    2    0   13    2    0.000051    0.000030
   -5    2    0   14    2   -0.000591    0.000000
   -5    2    0   15    2    0.000153    0.000794
   -5    2    0   16    2   -0.000093    0.000009
   -5    2    0   17    2   -0.000794    0.000764
   -5    2    0   18    2    0.000054    0.000016
   -5    2    0   19    2    0.000281    0.000317
   -5    2    0   20    2    0.000229   -0.000159
   -5    2    0   21    2   -0.000642   -0.000281
   -5    2    0   22    2   -0.000397   -0.000092
   -5    2    0    1    3    0.001028    0.000085
   -5    2    0    2    3    0.000694    0.000084
   -5    2    0    3    3    0.001166    0.000028
   -5    2    0    4    3   -0.000301    0.003339
   -5    2    0    5    3    0.000916    0.000007
   -5    2    0    6    3   -0.000845    0.000216
   -5    2    0    7    3   -0.001031   -0.000130
   -5    2    0    8    3   -0.000085    0.000065
   -5    2    0    9    3    0.001037   -0.000047
   -5    2    0   10    3   -0.000541   -0.000162
   -5    2    0   11    3    0.000153    0.000322
   -5    2    0   12    3   -0.005044    0.000874
   -5    2    0   13    3    0.000544   -0.000020
   -5    2    0   14    3   -0.001000   -0.000017
   -5    2    0   15    3   -0.000048    0.000009
   -5    2    0   16    3   -0.000459    0.003004
   -5    2    0   17    3    0.000248   -0.000096
   -5    2    0   18    3    0.002609   -0.000628
   -5    2    0   19    3   -0.000837    0.000474
   -5    2    0   20    3   -0.001822   -0.000168
   -5    2    0   21    3   -0.000909   -0.000325
   -5    2    0   22    3    0.000190   -0.001344
   -5    2    0    1    4   -0.000694    0.000084
   -5    2    0    2    4    0.001028   -0.000085
   -5    2    0    3    4    0.000301    0.003339
   -5    2    0    4    4    0.001166   -0.000028
   -5    2    0    5    4    0.000845    0.000216
   -5    2    0    6    4    0.000916   -0.000007
   -5    2    0    7    4    0.000085    0.000065
   -5    2    0    8    4   -0.001031    0.000130
   -5    2    0    9    4    0.000541   -0.000162
   -5    2    0   10    4    0.001037    0.000047
   -5    2    0   11    4    0.005044    0.000874
   -5    2    0   12    4    0.000153   -0.000322
   -5    2    0   13    4    0.001000   -0.000017
   -5    2    0   14    4    0.000544    0.000020
   -5    2    0   15    4    0.000459    0.003004
   -5    2    0   16    4   -0.000048   -0.000009
   -5    2    0   17    4   -0.002609   -0.000628
   -5    2    0   18    4    0.000248    0.000096
   -5    2    0   19    4    0.001822   -0.000168
   -5    2    0   20    4   -0.000837   -0.000474
   -5    2    0   21    4   -0.000190   -0.001344
   -5    2    0   22    4   -0.000909    0.000325
   -5    2    0    1    5    0.001364   -0.000113
   -5    2    0    2    5    0.000393   -0.000954
   -5    2    0    3    5    0.001198   -0.000184
   -5    2    0    4    5   -0.001644   -0.000709
   -5    2    0    5    5    0.001078    0.000032
   -5    2    0    6    5    0.000462   -0.003562
   -5    2    0    7    5   -0.001334    0.000175
   -5    2    0    8    5    0.000447    0.001283
   -5    2    0    9    5   -0.000065    0.000153
   -5    2    0   10    5    0.004641   -0.000891
   -5    2    0   11    5   -0.000632    0.000089
   -5    2    0   12    5    0.000163    0.000031
   -5    2    0   13    5   -0.000314   -0.000034
   -5    2    0   14    5   -0.000017   -0.001020
   -5    2    0   15    5    0.000248    0.000106
   -5    2    0   16    5    0.003218    0.000427
   -5    2    0   17    5    0.000239   -0.000009
   -5    2    0   18    5   -0.000258   -0.002590
   -5    2    0   19    5   -0.001875    0.000325
   -5    2    0   20    5   -0.000235    0.001370
   -5    2    0   21    5   -0.000837   -0.000850
   -5    2    0   22    5   -0.001382    0.000594
   -5    2    0    1    6   -0.000393   -0.000954
   -5    2    0    2    6    0.001364    0.000113
   -5    2    0    3    6    0.001644   -0.000709
   -5    2    0    4    6    0.001198    0.000184
   -5    2    0    5    6   -0.000462   -0.003562
   -5    2    0    6    6    0.001078   -0.000032
   -5    2    0    7    6   -0.000447    0.001283
   -5    2    0    8    6   -0.001334   -0.000175
   -5    2    0    9    6   -0.004641   -0.000891
   -5    2    0   10    6   -0.000065   -0.000153
   -5    2    0   11    6   -0.000163    0.000031
   -5    2    0   12    6   -0.000632   -0.000089
   -5    2    0   13    6    0.000017   -0.001020
   -5    2    0   14    6   -0.000314    0.000034
   -5    2    0   15    6   -0.003218    0.000427
   -5    2    0   16    6    0.000248   -0.000106
   -5    2    0   17    6    0.000258   -0.002590
   -5    2    0   18    6    0.000239    0.000009
   -5    2    0   19    6    0.000235    0.001370
   -5    2    0   20    6   -0.001875   -0.000325
   -5    2    0   21    6    0.001382    0.000594
   -5    2    0   22    6   -0.000837    0.000850
   -5    2    0    1    7    0.000952   -0.000007
   -5    2    0    2    7    0.000204    0.000041
   -5    2    0    3    7    0.000566   -0.000082
   -5    2    0    4    7   -0.000493   -0.000207
   -5    2    0    5    7    0.000177   -0.000029
   -5    2    0    6    7   -0.000537    0.000017
   -5    2    0    7    7   -0.000913    0.000017
   -5    2    0    8    7    0.000174    0.000425
   -5    2    0    9    7    0.000552   -0.000012
   -5    2    0   10    7   -0.000619    0.000040
   -5    2    0   11    7    0.000016    0.000006
   -5    2    0   12    7    0.000268    0.000388
   -5    2    0   13    7    0.000591    0.000000
   -5    2    0   14    7   -0.000051    0.000030
   -5    2    0   15    7   -0.000093   -0.000009
   -5    2    0   16    7    0.000153   -0.000794
   -5    2    0   17    7    0.000054   -0.000016
   -5    2    0   18    7   -0.000794   -0.000764
   -5    2    0   19    7   -0.000229   -0.000159
   -5    2    0   20    7   -0.000281    0.000317
   -5    2    0   21    7    0.000397   -0.000092
   -5    2    0   22    7    0.000642   -0.000281
   -5    2    0    1    8   -0.000204    0.000041
   -5    2    0    2    8    0.000952    0.000007
   -5    2    0    3    8    0.000493   -0.000207
   -5    2    0    4    8    0.000566    0.000082
   -5    2    0    5    8    0.000537    0.000017
   -5    2    0    6    8    0.000177    0.000029
   -5    2    0    7    8   -0.000174    0.000425
   -5    2    0    8    8   -0.000913   -0.000017
   -5    2    0    9    8    0.000619    0.000040
   -5    2    0   10    8    0.000552    0.000012
   -5    2    0   11    8   -0.000268    0.000388
   -5    2    0   12    8    0.000016   -0.000006
   -5    2    0   13    8    0.000051    0.000030
   -5    2    0   14    8    0.000591   -0.000000
   -5    2    0   15    8   -0.000153   -0.000794
   -5    2    0   16    8   -0.000093    0.000009
   -5    2    0   17    8    0.000794   -0.000764
   -5    2    0   18    8    0.000054    0.000016
   -5    2    0   19    8    0.000281    0.000317
   -5    2    0   20    8   -0.000229    0.000159
   -5    2    0   21    8   -0.000642   -0.000281
   -5    2    0   22    8    0.000397    0.000092
   -5    2    0    1    9    0.001031    0.000130
   -5    2    0    2    9   -0.000085    0.000065
   -5    2    0    3    9    0.001037   -0.000047
   -5    2    0    4    9    0.000541    0.000163
   -5    2    0    5    9    0.000153    0.000322
   -5    2    0    6    9    0.005044   -0.000874
   -5    2    0    7    9   -0.001028   -0.000085
   -5    2    0    8    9    0.000694    0.000084
   -5    2    0    9    9    0.001166    0.000028
   -5    2    0   10    9    0.000301   -0.003339
   -5    2    0   11    9    0.000916    0.000007
   -5    2    0   12    9    0.000845   -0.000216
   -5    2    0   13    9    0.000544   -0.000020
   -5    2    0   14    9    0.001000    0.000017
   -5    2    0   15    9    0.000048   -0.000009
   -5    2    0   16    9   -0.000459    0.003004
   -5    2    0   17    9   -0.000248    0.000096
   -5    2    0   18    9    0.002609   -0.000628
   -5    2    0   19    9   -0.000837    0.000474
   -5    2    0   20    9    0.001822    0.000168
   -5    2    0   21    9   -0.000909   -0.000325
   -5    2    0   22    9   -0.000190    0.001344
   -5    2    0    1   10    0.000085    0.000065
   -5    2    0    2   10    0.001031   -0.000130
   -5    2    0    3   10   -0.000541    0.000163
   -5    2    0    4   10    0.001037    0.000047
   -5    2    0    5   10   -0.005044   -0.000874
   -5    2    0    6   10    0.000153   -0.000322
   -5    2    0    7   10   -0.000694    0.000084
   -5    2    0    8   10   -0.001028    0.000085
   -5    2    0    9   10   -0.000301   -0.003339
   -5    2    0   10   10    0.001166   -0.000028
   -5    2    0   11   10   -0.000845   -0.000216
   -5    2    0   12   10    0.000916   -0.000007
   -5    2    0   13   10   -0.001000    0.000017
   -5    2    0   14   10    0.000544    0.000020
   -5    2    0   15   10    0.000459    0.003004
   -5    2    0   16   10    0.000048    0.000009
   -5    2    0   17   10   -0.002609   -0.000628
   -5    2    0   18   10   -0.000248   -0.000096
   -5    2    0   19   10   -0.001822    0.000168
   -5    2    0   20   10   -0.000837   -0.000474
   -5    2    0   21   10    0.000190    0.001344
   -5    2    0   22   10   -0.000909    0.000325
   -5    2    0    1   11    0.001334   -0.000175
   -5    2    0    2   11    0.000447    0.001283
   -5    2    0    3   11   -0.000065    0.000153
   -5    2    0    4   11   -0.004641    0.000891
   -5    2    0    5   11   -0.000632    0.000089
   -5    2    0    6   11   -0.000163   -0.000031
   -5    2    0    7   11   -0.001364    0.000113
   -5    2    0    8   11    0.000393   -0.000954
   -5    2    0    9   11    0.001198   -0.000184
   -5    2    0   10   11    0.001644    0.000709
   -5    2    0   11   11    0.001078    0.000032
   -5    2    0   12   11   -0.000462    0.003562
   -5    2    0   13   11   -0.000314   -0.000034
   -5    2    0   14   11    0.000017    0.001020
   -5    2    0   15   11   -0.000248   -0.000106
   -5    2    0   16   11    0.003218    0.000427
   -5    2    0   17   11   -0.000239    0.000009
   -5    2    0   18   11   -0.000258   -0.002590
   -5    2    0   19   11   -0.001875    0.000325
   -5    2    0   20   11    0.000235   -0.001370
   -5    2    0   21   11   -0.000837   -0.000850
   -5    2    0   22   11    0.001382   -0.000594
   -5    2    0    1   12   -0.000447    0.001283
   -5    2    0    2   12    0.001334    0.000175
   -5    2    0    3   12    0.004641    0.000891
   -5    2    0    4   12   -0.000065   -0.000153
   -5    2    0    5   12    0.000163   -0.000031
   -5    2    0    6   12   -0.000632   -0.000089
   -5    2    0    7   12   -0.000393   -0.000954
   -5    2    0    8   12   -0.001364   -0.000113
   -5    2    0    9   12   -0.001644    0.000709
   -5    2    0   10   12    0.001198    0.000184
   -5    2    0   11   12    0.000462    0.003562
   -5    2    0   12   12    0.001078   -0.000032
   -5    2    0   13   12   -0.000017    0.001020
   -5    2    0   14   12   -0.000314    0.000034
   -5    2    0   15   12   -0.003218    0.000427
   -5    2    0   16   12   -0.000248    0.000106
   -5    2    0   17   12    0.000258   -0.002590
   -5    2    0   18   12   -0.000239   -0.000009
   -5    2    0   19   12   -0.000235   -0.001370
   -5    2    0   20   12   -0.001875   -0.000325
   -5    2    0   21   12   -0.001382   -0.000594
   -5    2    0   22   12   -0.000837    0.000850
   -5    2    0    1   13   -0.002265   -0.000000
   -5    2    0    2   13   -0.000033   -0.000019
   -5    2    0    3   13   -0.001177   -0.000006
   -5    2    0    4   13   -0.000384    0.000199
   -5    2    0    5   13   -0.000679    0.000010
   -5    2    0    6   13    0.000199   -0.000614
   -5    2    0    7   13    0.002266    0.000000
   -5    2    0    8   13   -0.000033   -0.000019
   -5    2    0    9   13   -0.001177   -0.000006
   -5    2    0   10   13    0.000384   -0.000199
   -5    2    0   11   13   -0.000679    0.000010
   -5    2    0   12   13   -0.000199    0.000614
   -5    2    0   13   13   -0.000605   -0.000105
   -5    2    0   14   13   -0.000000   -0.000000
   -5    2    0   15   13   -0.000000    0.000000
   -5    2    0   16   13    0.000533    0.000355
   -5    2    0   17   13   -0.000000   -0.000000
   -5    2    0   18   13    0.000408   -0.000773
   -5    2    0   19   13    0.002512   -0.000103
   -5    2    0   20   13    0.000000    0.000000
   -5    2    0   21   13    0.001328    0.000209
   -5    2    0   22   13   -0.000000   -0.000000
   -5    2    0    1   14    0.000033   -0.000019
   -5    2    0    2   14   -0.002265    0.000000
   -5    2    0    3   14    0.000384    0.000199
   -5    2    0    4   14   -0.001177    0.000006
   -5    2    0    5   14   -0.000199   -0.000614
   -5    2    0    6   14   -0.000679   -0.000010
   -5    2    0    7   14    0.000033   -0.000019
   -5    2    0    8   14    0.002266   -0.000000
   -5    2    0    9   14   -0.000384   -0.000199
   -5    2    0   10   14   -0.001177    0.000006
   -5    2    0   11   14    0.000199    0.000614
   -5    2    0   12   14   -0.000679   -0.000010
   -5    2    0   13   14    0.000000   -0.000000
   -5    2    0   14   14   -0.000605    0.000105
   -5    2    0   15   14   -0.000533    0.000355
   -5    2    0   16   14   -0.000000   -0.000000
   -5    2    0   17   14   -0.000408   -0.000773
   -5    2    0   18   14   -0.000000    0.000000
   -5    2    0   19   14   -0.000000   -0.000000
   -5    2    0   20   14    0.002512    0.000103
   -5    2    0   21   14    0.000000   -0.000000
   -5    2    0   22   14    0.001328   -0.000209
   -5    2    0    1   15   -0.000183   -0.000010
   -5    2    0    2   15   -0.001670   -0.000169
   -5    2    0    3   15    0.001732    0.000045
   -5    2    0    4   15   -0.000393    0.003143
   -5    2    0    5   15    0.000810    0.000070
   -5    2    0    6   15    0.002181    0.000197
   -5    2    0    7   15   -0.000183   -0.000010
   -5    2    0    8   15    0.001670    0.000169
   -5    2    0    9   15   -0.001732   -0.000045
   -5    2    0   10   15   -0.000393    0.003143
   -5    2    0   11   15   -0.000810   -0.000070
   -5    2    0   12   15    0.002181    0.000197
   -5    2    0   13   15    0.000000    0.000000
   -5    2    0   14   15    0.000543    0.000208
   -5    2    0   15   15    0.000116    0.000023
   -5    2    0   16   15   -0.000000   -0.000000
   -5    2    0   17   15    0.000194   -0.000147
   -5    2    0   18   15   -0.000000    0.000000
   -5    2    0   19   15   -0.000000    0.000000
   -5    2    0   20   15    0.003574    0.000272
   -5    2    0   21   15   -0.000000   -0.000000
   -5    2    0   22   15   -0.000103   -0.003110
   -5    2    0    1   16    0.001670   -0.000169
   -5    2    0    2   16   -0.000183    0.000010
   -5    2    0    3   16    0.000393    0.003143
   -5    2    0    4   16    0.001732   -0.000045
   -5    2    0    5   16   -0.002181    0.000197
   -5    2    0    6   16    0.000810   -0.000070
   -5    2    0    7   16   -0.001670    0.000169
   -5    2    0    8   16   -0.000183    0.000010
   -5    2    0    9   16    0.000393    0.003143
   -5    2    0   10   16   -0.001732    0.000045
   -5    2    0   11   16   -0.002181    0.000197
   -5    2    0   12   16   -0.000810    0.000070
   -5    2    0   13   16   -0.000543    0.000208
   -5    2    0   14   16    0.000000   -0.000000
   -5    2    0   15   16    0.000000   -0.000000
   -5    2    0   16   16    0.000116   -0.000023
   -5    2    0   17   16    0.000000    0.000000
   -5    2    0   18   16    0.000194    0.000147
   -5    2    0   19   16   -0.003574    0.000272
   -5    2    0   20   16   -0.000000   -0.000000
   -5    2    0   21   16    0.000103   -0.003110
   -5    2    0   22   16   -0.000000    0.000000
   -5    2    0    1   17   -0.000106    0.000017
   -5    2    0    2   17   -0.000169   -0.001474
   -5    2    0    3   17    0.000810   -0.000122
   -5    2    0    4   17    0.002946   -0.001128
   -5    2    0    5   17    0.000797   -0.000045
   -5    2    0    6   17    0.000538   -0.003059
   -5    2    0    7   17   -0.000106    0.000017
   -5    2    0    8   17    0.000169    0.001474
   -5    2    0    9   17   -0.000810    0.000122
   -5    2    0   10   17    0.002946   -0.001128
   -5    2    0   11   17   -0.000797    0.000045
   -5    2    0   12   17    0.000538   -0.003059
   -5    2    0   13   17   -0.000000   -0.000000
   -5    2    0   14   17    0.000002   -0.001630
   -5    2    0   15   17    0.000147   -0.000222
   -5    2    0   16   17    0.000000    0.000000
   -5    2    0   17   17    0.000145   -0.000001
   -5    2    0   18   17    0.000000   -0.000000
   -5    2    0   19   17    0.000000    0.000000
   -5    2    0   20   17    0.000169    0.001793
   -5    2    0   21   17    0.000000    0.000000
   -5    2    0   22   17   -0.002861    0.001375
   -5    2    0    1   18    0.000169   -0.001474
   -5    2    0    2   18   -0.000106   -0.000017
   -5    2    0    3   18   -0.002946   -0.001128
   -5    2    0    4   18    0.000810    0.000122
   -5    2    0    5   18   -0.000538   -0.003059
   -5    2    0    6   18    0.000797    0.000045
   -5    2    0    7   18   -0.000169    0.001474
   -5    2    0    8   18   -0.000106   -0.000017
   -5    2    0    9   18   -0.002946   -0.001128
   -5    2    0   10   18   -0.000810   -0.000122
   -5    2    0   11   18   -0.000538   -0.003059
   -5    2    0   12   18   -0.000797   -0.000045
   -5    2    0   13   18   -0.000002   -0.001630
   -5    2    0   14   18   -0.000000    0.000000
   -5    2    0   15   18   -0.000000    0.000000
   -5    2    0   16   18    0.000147    0.000222
   -5    2    0   17   18   -0.000000   -0.000000
   -5    2    0   18   18    0.000145    0.000001
   -5    2    0   19   18   -0.000169    0.001793
   -5    2    0   20   18    0.000000   -0.000000
   -5    2    0   21   18    0.002861    0.001375
   -5    2    0   22   18    0.000000   -0.000000
   -5    2    0    1   19    0.001151   -0.000048
   -5    2    0    2   19   -0.000004   -0.000100
   -5    2    0    3   19    0.000854    0.000588
   -5    2    0    4   19   -0.000893    0.000188
   -5    2    0    5   19    0.000010    0.000105
   -5    2    0    6   19   -0.000302    0.001330
   -5    2    0    7   19   -0.001151    0.000048
   -5    2    0    8   19   -0.000004   -0.000100
   -5    2    0    9   19    0.000854    0.000588
   -5    2    0   10   19    0.000893   -0.000188
   -5    2    0   11   19    0.000010    0.000105
   -5    2    0   12   19    0.000302   -0.001330
   -5    2    0   13   19   -0.000056   -0.000006
   -5    2    0   14   19    0.000000    0.000000
   -5    2    0   15   19    0.000000    0.000000
   -5    2    0   16   19    0.003158   -0.000498
   -5    2    0   17   19    0.000000    0.000000
   -5    2    0   18   19   -0.000693    0.001727
   -5    2    0   19   19    0.000096   -0.000306
   -5    2    0   20   19    0.000000    0.000000
   -5    2    0   21   19    0.000807   -0.000754
   -5    2    0   22   19    0.000000   -0.000000
   -5    2    0    1   20    0.000004   -0.000100
   -5    2    0    2   20    0.001151    0.000048
   -5    2    0    3   20    0.000893    0.000188
   -5    2    0    4   20    0.000854   -0.000588
   -5    2    0    5   20    0.000302    0.001330
   -5    2    0    6   20    0.000010   -0.000105
   -5    2    0    7   20    0.000004   -0.000100
   -5    2    0    8   20   -0.001151   -0.000048
   -5    2    0    9   20   -0.000893   -0.000188
   -5    2    0   10   20    0.000854   -0.000588
   -5    2    0   11   20   -0.000302   -0.001330
   -5    2    0   12   20    0.000010   -0.000105
   -5    2    0   13   20   -0.000000   -0.000000
   -5    2    0   14   20   -0.000056    0.000006
   -5    2    0   15   20   -0.003158   -0.000498
   -5    2    0   16   20    0.000000   -0.000000
   -5    2    0   17   20    0.000693    0.001727
   -5    2    0   18   20    0.000000   -0.000000
   -5    2    0   19   20   -0.000000    0.000000
   -5    2    0   20   20    0.000096    0.000306
   -5    2    0   21   20   -0.000000   -0.000000
   -5    2    0   22   20    0.000807    0.000754
   -5    2    0    1   21    0.001994    0.000028
   -5    2    0    2   21   -0.000104   -0.000004
   -5    2    0    3   21    0.000995   -0.000105
   -5    2    0    4   21    0.000321   -0.001319
   -5    2    0    5   21    0.000854   -0.000467
   -5    2    0    6   21   -0.001036    0.000435
   -5    2    0    7   21   -0.001994   -0.000028
   -5    2    0    8   21   -0.000104   -0.000004
   -5    2    0    9   21    0.000995   -0.000105
   -5    2    0   10   21   -0.000321    0.001319
   -5    2    0   11   21    0.000854   -0.000467
   -5    2    0   12   21    0.001036   -0.000435
   -5    2    0   13   21    0.000022   -0.000268
   -5    2    0   14   21   -0.000000   -0.000000
   -5    2    0   15   21    0.000000    0.000000
   -5    2    0   16   21    0.000218   -0.001916
   -5    2    0   17   21   -0.000000    0.000000
   -5    2    0   18   21   -0.001375    0.000809
   -5    2    0   19   21   -0.001994   -0.000480
   -5    2    0   20   21    0.000000   -0.000000
   -5    2    0   21   21   -0.001605    0.000005
   -5    2    0   22   21    0.000000   -0.000000
   -5    2    0    1   22    0.000104   -0.000004
   -5    2    0    2   22    0.001994   -0.000028
   -5    2    0    3   22   -0.000321   -0.001319
   -5    2    0    4   22    0.000995    0.000105
   -5    2    0    5   22    0.001036    0.000435
   -5    2    0    6   22    0.000854    0.000467
   -5    2    0    7   22    0.000104   -0.000004
   -5    2    0    8   22   -0.001994    0.000028
   -5    2    0    9   22    0.000321    0.001319
   -5    2    0   10   22    0.000995    0.000105
   -5    2    0   11   22   -0.001036   -0.000435
   -5    2    0   12   22    0.000854    0.000467
   -5    2    0   13   22    0.000000   -0.000000
   -5    2    0   14   22    0.000022    0.000268
   -5    2    0   15   22   -0.000218   -0.001916
   -5    2    0   16   22    0.000000   -0.000000
   -5    2    0   17   22    0.001375    0.000809
   -5    2    0   18   22   -0.000000   -0.000000
   -5    2    0   19   22   -0.000000   -0.000000
   -5    2    0   20   22   -0.001994    0.000480
   -5    2    0   21   22   -0.000000   -0.000000
   -5    2    0   22   22   -0.001605   -0.000005
   -5    3    0    1    1   -0.000913   -0.000017
   -5    3    0    2    1   -0.000455    0.000062
   -5    3    0    3    1   -0.000290   -0.000001
   -5    3    0    4    1    0.000270   -0.000245
   -5    3    0    5    1   -0.000470   -0.000014
   -5    3    0    6    1   -0.000473   -0.000501
   -5    3    0    7    1    0.000952    0.000007
   -5    3    0    8    1   -0.000138   -0.000156
   -5    3    0    9    1   -0.000436   -0.000066
   -5    3    0   10    1   -0.000432   -0.000572
   -5    3    0   11    1   -0.000402   -0.000056
   -5    3    0   12    1   -0.000242   -0.000043
   -5    3    0   13    1    0.000128    0.000000
   -5    3    0   14    1   -0.000016   -0.000009
   -5    3    0   15    1   -0.000198   -0.000023
   -5    3    0   16    1   -0.000277    0.000046
   -5    3    0   17    1   -0.000115    0.000039
   -5    3    0   18    1    0.000046   -0.000330
   -5    3    0   19    1    0.000783   -0.000152
   -5    3    0   20    1    0.000471   -0.000425
   -5    3    0   21    1    0.001356    0.000088
   -5    3    0   22    1    0.000120    0.000472
   -5    3    0    1    2    0.000455    0.000062
   -5    3    0    2    2   -0.000913    0.000017
   -5    3    0    3    2   -0.000270   -0.000245
   -5    3    0    4    2   -0.000290    0.000001
   -5    3    0    5    2    0.000473   -0.000501
   -5    3    0    6    2   -0.000470    0.000014
   -5    3    0    7    2    0.000138   -0.000156
   -5    3    0    8    2    0.000952   -0.000007
   -5    3    0    9    2    0.000432   -0.000572
   -5    3    0   10    2   -0.000436    0.000066
   -5    3    0   11    2    0.000242   -0.000043
   -5    3    0   12    2   -0.000402    0.000056
   -5    3    0   13    2    0.000016   -0.000009
   -5    3    0   14    2    0.000128   -0.000000
   -5    3    0   15    2    0.000277    0.000046
   -5    3    0   16    2   -0.000198    0.000023
   -5    3    0   17    2   -0.000046   -0.000330
   -5    3    0   18    2   -0.000115   -0.000039
   -5    3    0   19    2   -0.000471   -0.000425
   -5    3    0   20    2    0.000783    0.000152
   -5    3    0   21    2   -0.000120    0.000472
   -5    3    0   22    2    0.001356   -0.000088
   -5    3    0    1    3    0.001695    0.000056
   -5    3    0    2    3   -0.000336    0.000987
   -5    3    0    3    3    0.002015    0.000045
   -5    3    0    4    3   -0.002179    0.000327
   -5    3    0    5    3    0.000708    0.000141
   -5    3    0    6    3    0.001405   -0.002371
   -5    3    0    7    3   -0.001670   -0.000087
   -5    3    0    8    3    0.001163   -0.000273
   -5    3    0    9    3   -0.000177   -0.000261
   -5    3    0   10    3   -0.000115   -0.000150
   -5    3    0   11    3    0.000635    0.000024
   -5    3    0   12    3    0.001378    0.004328
   -5    3    0   13    3    0.001312    0.000019
   -5    3    0   14    3    0.000750    0.000732
   -5    3    0   15    3   -0.000058    0.000166
   -5    3    0   16    3   -0.002061   -0.000260
   -5    3    0   17    3   -0.000050   -0.000040
   -5    3    0   18    3   -0.000427   -0.004854
   -5    3    0   19    3   -0.001356    0.000043
   -5    3    0   20    3    0.002105   -0.000959
   -5    3    0   21    3   -0.000598   -0.000476
   -5    3    0   22    3    0.000930   -0.000313
   -5    3    0    1    4    0.000336    0.000987
   -5    3    0    2    4    0.001695   -0.000056
   -5    3    0    3    4    0.002179    0.000327
   -5    3    0    4    4    0.002015   -0.000045
   -5    3    0    5    4   -0.001405   -0.002371
   -5    3    0    6    4    0.000708   -0.000141
   -5    3    0    7    4   -0.001163   -0.000273
   -5    3    0    8    4   -0.001670    0.000087
   -5    3    0    9    4    0.000115   -0.000150
   -5    3    0   10    4   -0.000177    0.000261
   -5    3    0   11    4   -0.001378    0.004328
   -5    3    0   12    4    0.000635   -0.000024
   -5    3    0   13    4   -0.000750    0.000732
   -5    3    0   14    4    0.001312   -0.000019
   -5    3    0   15    4    0.002061   -0.000260
   -5    3    0   16    4   -0.000058   -0.000166
   -5    3    0   17    4    0.000427   -0.004854
   -5    3    0   18    4   -0.000050    0.000040
   -5    3    0   19    4   -0.002105   -0.000959
   -5    3    0   20    4   -0.001356   -0.000043
   -5    3    0   21    4   -0.000930   -0.000313
   -5    3    0   22    4   -0.000598    0.000476
   -5    3    0    1    5    0.000208   -0.000130
   -5    3    0    2    5    0.000678    0.000075
   -5    3    0    3    5    0.000426   -0.000049
   -5    3    0    4    5    0.002605   -0.002142
   -5    3    0    5    5    0.000228   -0.000106
   -5    3    0    6    5    0.002066   -0.000076
   -5    3    0    7    5   -0.000226    0.000200
   -5    3    0    8    5   -0.000656    0.000035
   -5    3    0    9    5    0.000854   -0.000144
   -5    3    0   10    5   -0.001936   -0.004942
   -5    3    0   11    5    0.000581    0.000219
   -5    3    0   12    5   -0.000188   -0.000112
   -5    3    0   13    5    0.000758   -0.000034
   -5    3    0   14    5    0.000732   -0.000096
   -5    3    0   15    5   -0.000050   -0.000152
   -5    3    0   16    5   -0.003953    0.001252
   -5    3    0   17    5    0.000001   -0.000166
   -5    3    0   18    5    0.001541   -0.000040
   -5    3    0   19    5    0.000968    0.000476
   -5    3    0   20    5   -0.001150    0.000186
   -5    3    0   21    5   -0.001356    0.000506
   -5    3    0   22    5   -0.000203    0.003039
   -5    3    0    1    6   -0.000678    0.000075
   -5    3    0    2    6    0.000208    0.000130
   -5    3    0    3    6   -0.002605   -0.002142
   -5    3    0    4    6    0.000426    0.000049
   -5    3    0    5    6   -0.002066   -0.000076
   -5    3    0    6    6    0.000228    0.000106
   -5    3    0    7    6    0.000656    0.000035
   -5    3    0    8    6   -0.000226   -0.000200
   -5    3    0    9    6    0.001936   -0.004942
   -5    3    0   10    6    0.000854    0.000144
   -5    3    0   11    6    0.000188   -0.000112
   -5    3    0   12    6    0.000581   -0.000219
   -5    3    0   13    6   -0.000732   -0.000096
   -5    3    0   14    6    0.000758    0.000034
   -5    3    0   15    6    0.003953    0.001252
   -5    3    0   16    6   -0.000050    0.000152
   -5    3    0   17    6   -0.001541   -0.000040
   -5    3    0   18    6    0.000001    0.000166
   -5    3    0   19    6    0.001150    0.000186
   -5    3    0   20    6    0.000968   -0.000476
   -5    3    0   21    6    0.000203    0.003039
   -5    3    0   22    6   -0.001356   -0.000506
   -5    3    0    1    7    0.000952    0.000007
   -5    3    0    2    7    0.000138    0.000156
   -5    3    0    3    7    0.000436    0.000066
   -5    3    0    4    7   -0.000432   -0.000572
   -5    3    0    5    7    0.000402    0.000056
   -5    3    0    6    7   -0.000242   -0.000043
[...]
    6   -3    0   20    4   -0.000000   -0.000703
    6   -3    0   21    4   -0.000000   -0.001593
    6   -3    0   22    4   -0.000184   -0.000000
    6   -3    0    1    5    0.000000   -0.000000
    6   -3    0    2    5   -0.000000   -0.000335
    6   -3    0    3    5    0.000000   -0.000220
    6   -3    0    4    5    0.003773   -0.000000
    6   -3    0    5    5   -0.000251    0.000000
    6   -3    0    6    5   -0.000000   -0.003774
    6   -3    0    7    5   -0.000000   -0.000000
    6   -3    0    8    5   -0.000000   -0.000562
    6   -3    0    9    5   -0.000000   -0.000071
    6   -3    0   10    5    0.000584   -0.000000
    6   -3    0   11    5    0.000151   -0.000000
    6   -3    0   12    5    0.000000   -0.000584
    6   -3    0   13    5    0.001322    0.000000
    6   -3    0   14    5   -0.000000   -0.000629
    6   -3    0   15    5   -0.000000   -0.000036
    6   -3    0   16    5   -0.002493   -0.000000
    6   -3    0   17    5   -0.000230    0.000000
    6   -3    0   18    5    0.000000   -0.001843
    6   -3    0   19    5   -0.000352    0.000000
    6   -3    0   20    5   -0.000000    0.001281
    6   -3    0   21    5   -0.000000    0.000016
    6   -3    0   22    5   -0.001286   -0.000000
    6   -3    0    1    6   -0.000000   -0.000335
    6   -3    0    2    6    0.000000   -0.000000
    6   -3    0    3    6   -0.003773   -0.000000
    6   -3    0    4    6    0.000000    0.000220
    6   -3    0    5    6    0.000000   -0.003774
    6   -3    0    6    6   -0.000251   -0.000000
    6   -3    0    7    6    0.000000   -0.000562
    6   -3    0    8    6   -0.000000   -0.000000
    6   -3    0    9    6   -0.000584    0.000000
    6   -3    0   10    6   -0.000000    0.000071
    6   -3    0   11    6   -0.000000   -0.000584
    6   -3    0   12    6    0.000151    0.000000
    6   -3    0   13    6   -0.000000   -0.000629
    6   -3    0   14    6    0.001322    0.000000
    6   -3    0   15    6    0.002493    0.000000
    6   -3    0   16    6    0.000000    0.000036
    6   -3    0   17    6   -0.000000   -0.001843
    6   -3    0   18    6   -0.000230    0.000000
    6   -3    0   19    6    0.000000    0.001281
    6   -3    0   20    6   -0.000352    0.000000
    6   -3    0   21    6    0.001286   -0.000000
    6   -3    0   22    6    0.000000   -0.000016
    6   -3    0    1    7   -0.001218    0.000000
    6   -3    0    2    7   -0.000000   -0.000000
    6   -3    0    3    7   -0.000000   -0.000000
    6   -3    0    4    7    0.001558   -0.000000
    6   -3    0    5    7   -0.000000   -0.000000
    6   -3    0    6    7    0.000000    0.001557
    6   -3    0    7    7    0.000999   -0.000000
    6   -3    0    8    7    0.000000   -0.000000
    6   -3    0    9    7   -0.000000   -0.000000
    6   -3    0   10    7   -0.000709   -0.000000
    6   -3    0   11    7   -0.000000    0.000000
    6   -3    0   12    7   -0.000000   -0.000709
    6   -3    0   13    7   -0.001312    0.000000
    6   -3    0   14    7    0.000000   -0.000150
    6   -3    0   15    7    0.000000   -0.000026
    6   -3    0   16    7   -0.000680   -0.000000
    6   -3    0   17    7    0.000037   -0.000000
    6   -3    0   18    7    0.000000    0.001765
    6   -3    0   19    7    0.001534   -0.000000
    6   -3    0   20    7   -0.000000   -0.000062
    6   -3    0   21    7   -0.000000    0.000385
    6   -3    0   22    7    0.000037    0.000000
    6   -3    0    1    8   -0.000000   -0.000000
    6   -3    0    2    8   -0.001218   -0.000000
    6   -3    0    3    8   -0.001558   -0.000000
    6   -3    0    4    8   -0.000000    0.000000
    6   -3    0    5    8    0.000000    0.001557
    6   -3    0    6    8   -0.000000   -0.000000
    6   -3    0    7    8   -0.000000   -0.000000
    6   -3    0    8    8    0.000999   -0.000000
    6   -3    0    9    8    0.000709   -0.000000
    6   -3    0   10    8   -0.000000    0.000000
    6   -3    0   11    8    0.000000   -0.000709
    6   -3    0   12    8   -0.000000   -0.000000
    6   -3    0   13    8    0.000000   -0.000150
    6   -3    0   14    8   -0.001312    0.000000
    6   -3    0   15    8    0.000680   -0.000000
    6   -3    0   16    8   -0.000000    0.000026
    6   -3    0   17    8    0.000000    0.001765
    6   -3    0   18    8    0.000037    0.000000
    6   -3    0   19    8    0.000000   -0.000062
    6   -3    0   20    8    0.001534   -0.000000
    6   -3    0   21    8   -0.000037    0.000000
    6   -3    0   22    8   -0.000000   -0.000385
    6   -3    0    1    9    0.000000    0.000000
    6   -3    0    2    9   -0.000562   -0.000000
    6   -3    0    3    9    0.000151    0.000000
    6   -3    0    4    9    0.000000   -0.000584
    6   -3    0    5    9   -0.000000    0.000071
    6   -3    0    6    9   -0.000584    0.000000
    6   -3    0    7    9    0.000000    0.000000
    6   -3    0    8    9   -0.000335   -0.000000
    6   -3    0    9    9   -0.000251   -0.000000
    6   -3    0   10    9    0.000000   -0.003773
    6   -3    0   11    9    0.000000    0.000220
    6   -3    0   12    9   -0.003773   -0.000000
    6   -3    0   13    9   -0.000000    0.000028
    6   -3    0   14    9    0.000062   -0.000000
    6   -3    0   15    9   -0.000793   -0.000000
    6   -3    0   16    9    0.000000    0.003461
    6   -3    0   17    9   -0.000000    0.000107
    6   -3    0   18    9    0.003060    0.000000
    6   -3    0   19    9    0.000000    0.000703
    6   -3    0   20    9   -0.001782   -0.000000
    6   -3    0   21    9   -0.000184   -0.000000
    6   -3    0   22    9   -0.000000    0.001593
    6   -3    0    1   10    0.000562    0.000000
    6   -3    0    2   10    0.000000   -0.000000
    6   -3    0    3   10   -0.000000   -0.000584
    6   -3    0    4   10    0.000151   -0.000000
    6   -3    0    5   10    0.000584    0.000000
    6   -3    0    6   10   -0.000000   -0.000071
    6   -3    0    7   10    0.000335   -0.000000
    6   -3    0    8   10   -0.000000    0.000000
    6   -3    0    9   10   -0.000000   -0.003773
    6   -3    0   10   10   -0.000251    0.000000
    6   -3    0   11   10    0.003773    0.000000
    6   -3    0   12   10    0.000000   -0.000220
    6   -3    0   13   10   -0.000062    0.000000
    6   -3    0   14   10    0.000000   -0.000028
    6   -3    0   15   10    0.000000    0.003461
    6   -3    0   16   10   -0.000793    0.000000
    6   -3    0   17   10   -0.003060    0.000000
    6   -3    0   18   10    0.000000   -0.000107
    6   -3    0   19   10    0.001782   -0.000000
    6   -3    0   20   10    0.000000   -0.000703
    6   -3    0   21   10    0.000000    0.001593
    6   -3    0   22   10   -0.000184   -0.000000
    6   -3    0    1   11    0.000000    0.000000
    6   -3    0    2   11    0.000000   -0.000562
    6   -3    0    3   11   -0.000000   -0.000071
    6   -3    0    4   11   -0.000584    0.000000
    6   -3    0    5   11    0.000150   -0.000000
    6   -3    0    6   11   -0.000000    0.000584
    6   -3    0    7   11   -0.000000    0.000000
    6   -3    0    8   11    0.000000   -0.000335
    6   -3    0    9   11    0.000000   -0.000220
    6   -3    0   10   11   -0.003773   -0.000000
    6   -3    0   11   11   -0.000251    0.000000
    6   -3    0   12   11    0.000000    0.003774
    6   -3    0   13   11    0.001322    0.000000
    6   -3    0   14   11    0.000000    0.000629
    6   -3    0   15   11    0.000000    0.000036
    6   -3    0   16   11   -0.002493    0.000000
    6   -3    0   17   11    0.000230   -0.000000
    6   -3    0   18   11   -0.000000   -0.001843
    6   -3    0   19   11   -0.000352    0.000000
    6   -3    0   20   11    0.000000   -0.001281
    6   -3    0   21   11    0.000000    0.000016
    6   -3    0   22   11    0.001286    0.000000
    6   -3    0    1   12    0.000000   -0.000562
    6   -3    0    2   12    0.000000   -0.000000
    6   -3    0    3   12    0.000584    0.000000
    6   -3    0    4   12   -0.000000    0.000071
    6   -3    0    5   12    0.000000    0.000584
    6   -3    0    6   12    0.000150    0.000000
    6   -3    0    7   12    0.000000   -0.000335
    6   -3    0    8   12   -0.000000    0.000000
    6   -3    0    9   12    0.003773   -0.000000
    6   -3    0   10   12    0.000000    0.000220
    6   -3    0   11   12   -0.000000    0.003774
    6   -3    0   12   12   -0.000251   -0.000000
    6   -3    0   13   12    0.000000    0.000629
    6   -3    0   14   12    0.001322   -0.000000
    6   -3    0   15   12    0.002493   -0.000000
    6   -3    0   16   12   -0.000000   -0.000036
    6   -3    0   17   12    0.000000   -0.001843
    6   -3    0   18   12    0.000230    0.000000
    6   -3    0   19   12    0.000000   -0.001281
    6   -3    0   20   12   -0.000352   -0.000000
    6   -3    0   21   12   -0.001286    0.000000
    6   -3    0   22   12    0.000000   -0.000016
    6   -3    0    1   13    0.000128    0.000000
    6   -3    0    2   13    0.000000   -0.000019
    6   -3    0    3   13    0.000000    0.000039
    6   -3    0    4   13    0.000519   -0.000000
    6   -3    0    5   13   -0.001515   -0.000000
    6   -3    0    6   13   -0.000000   -0.001173
    6   -3    0    7   13   -0.000128   -0.000000
    6   -3    0    8   13   -0.000000   -0.000019
    6   -3    0    9   13    0.000000    0.000039
    6   -3    0   10   13   -0.000519    0.000000
    6   -3    0   11   13   -0.001515   -0.000000
    6   -3    0   12   13    0.000000    0.001173
    6   -3    0   13   13    0.001363   -0.000000
    6   -3    0   14   13    0.000000    0.000000
    6   -3    0   15   13   -0.000000    0.000000
    6   -3    0   16   13   -0.001719    0.000000
    6   -3    0   17   13    0.000000    0.000000
    6   -3    0   18   13   -0.000000   -0.001719
    6   -3    0   19   13    0.000000   -0.000000
    6   -3    0   20   13    0.000000   -0.000000
    6   -3    0   21   13   -0.000000    0.000000
    6   -3    0   22   13   -0.000000    0.000000
    6   -3    0    1   14   -0.000000   -0.000019
    6   -3    0    2   14    0.000128   -0.000000
    6   -3    0    3   14   -0.000519   -0.000000
    6   -3    0    4   14    0.000000   -0.000039
    6   -3    0    5   14   -0.000000   -0.001173
    6   -3    0    6   14   -0.001515    0.000000
    6   -3    0    7   14   -0.000000   -0.000019
    6   -3    0    8   14   -0.000128   -0.000000
    6   -3    0    9   14    0.000519   -0.000000
    6   -3    0   10   14    0.000000   -0.000039
    6   -3    0   11   14    0.000000    0.001173
    6   -3    0   12   14   -0.001515   -0.000000
    6   -3    0   13   14   -0.000000   -0.000000
    6   -3    0   14   14    0.001363    0.000000
    6   -3    0   15   14    0.001719    0.000000
    6   -3    0   16   14   -0.000000   -0.000000
    6   -3    0   17   14   -0.000000   -0.001719
    6   -3    0   18   14   -0.000000    0.000000
    6   -3    0   19   14   -0.000000    0.000000
    6   -3    0   20   14    0.000000    0.000000
    6   -3    0   21   14    0.000000   -0.000000
    6   -3    0   22   14    0.000000   -0.000000
    6   -3    0    1   15    0.000000   -0.000045
    6   -3    0    2   15    0.000357   -0.000000
    6   -3    0    3   15    0.000030    0.000000
    6   -3    0    4   15   -0.000000    0.002930
    6   -3    0    5   15    0.000000   -0.000136
    6   -3    0    6   15   -0.004455    0.000000
    6   -3    0    7   15   -0.000000   -0.000045
    6   -3    0    8   15   -0.000357    0.000000
    6   -3    0    9   15   -0.000030    0.000000
    6   -3    0   10   15   -0.000000    0.002930
    6   -3    0   11   15    0.000000    0.000136
    6   -3    0   12   15   -0.004455   -0.000000
    6   -3    0   13   15    0.000000   -0.000000
    6   -3    0   14   15   -0.000512    0.000000
    6   -3    0   15   15   -0.000230    0.000000
    6   -3    0   16   15   -0.000000    0.000000
    6   -3    0   17   15    0.000000   -0.000086
    6   -3    0   18   15    0.000000    0.000000
    6   -3    0   19   15   -0.000000   -0.000000
    6   -3    0   20   15   -0.001765    0.000000
    6   -3    0   21   15   -0.000000   -0.000000
    6   -3    0   22   15   -0.000000   -0.001766
    6   -3    0    1   16   -0.000357   -0.000000
    6   -3    0    2   16   -0.000000    0.000045
    6   -3    0    3   16   -0.000000    0.002930
    6   -3    0    4   16    0.000030    0.000000
    6   -3    0    5   16    0.004455    0.000000
    6   -3    0    6   16   -0.000000    0.000136
    6   -3    0    7   16    0.000357   -0.000000
    6   -3    0    8   16    0.000000    0.000045
    6   -3    0    9   16    0.000000    0.002930
    6   -3    0   10   16   -0.000030   -0.000000
    6   -3    0   11   16    0.004455    0.000000
    6   -3    0   12   16    0.000000   -0.000136
    6   -3    0   13   16    0.000512    0.000000
    6   -3    0   14   16   -0.000000    0.000000
    6   -3    0   15   16    0.000000    0.000000
    6   -3    0   16   16   -0.000230   -0.000000
    6   -3    0   17   16   -0.000000   -0.000000
    6   -3    0   18   16    0.000000    0.000086
    6   -3    0   19   16    0.001765    0.000000
    6   -3    0   20   16   -0.000000    0.000000
    6   -3    0   21   16   -0.000000   -0.001766
    6   -3    0   22   16   -0.000000    0.000000
    6   -3    0    1   17    0.000229   -0.000000
    6   -3    0    2   17   -0.000000    0.000251
    6   -3    0    3   17    0.000000   -0.000248
    6   -3    0    4   17    0.002595    0.000000
    6   -3    0    5   17   -0.000087    0.000000
    6   -3    0    6   17   -0.000000   -0.003530
    6   -3    0    7   17    0.000229    0.000000
    6   -3    0    8   17   -0.000000   -0.000251
    6   -3    0    9   17    0.000000    0.000248
    6   -3    0   10   17    0.002595    0.000000
    6   -3    0   11   17    0.000087   -0.000000
    6   -3    0   12   17    0.000000   -0.003530
    6   -3    0   13   17   -0.000000    0.000000
    6   -3    0   14   17    0.000000   -0.000512
    6   -3    0   15   17   -0.000000    0.000086
    6   -3    0   16   17    0.000000   -0.000000
    6   -3    0   17   17   -0.000230   -0.000000
    6   -3    0   18   17    0.000000   -0.000000
    6   -3    0   19   17   -0.000000   -0.000000
    6   -3    0   20   17    0.000000    0.001766
    6   -3    0   21   17    0.000000    0.000000
    6   -3    0   22   17   -0.001766    0.000000
    6   -3    0    1   18   -0.000000    0.000251
    6   -3    0    2   18    0.000229    0.000000
    6   -3    0    3   18   -0.002595    0.000000
    6   -3    0    4   18    0.000000    0.000248
    6   -3    0    5   18   -0.000000   -0.003530
    6   -3    0    6   18   -0.000087   -0.000000
    6   -3    0    7   18    0.000000   -0.000251
    6   -3    0    8   18    0.000229   -0.000000
    6   -3    0    9   18   -0.002595    0.000000
    6   -3    0   10   18   -0.000000   -0.000248
    6   -3    0   11   18   -0.000000   -0.003530
    6   -3    0   12   18    0.000087   -0.000000
    6   -3    0   13   18   -0.000000   -0.000512
    6   -3    0   14   18    0.000000    0.000000
    6   -3    0   15   18   -0.000000   -0.000000
    6   -3    0   16   18   -0.000000   -0.000086
    6   -3    0   17   18    0.000000   -0.000000
    6   -3    0   18   18   -0.000230    0.000000
    6   -3    0   19   18    0.000000    0.001766
    6   -3    0   20   18   -0.000000    0.000000
    6   -3    0   21   18    0.001766   -0.000000
    6   -3    0   22   18    0.000000   -0.000000
    6   -3    0    1   19   -0.001566   -0.000000
    6   -3    0    2   19   -0.000000   -0.000392
    6   -3    0    3   19    0.000000    0.000781
    6   -3    0    4   19    0.003159   -0.000000
    6   -3    0    5   19   -0.001381   -0.000000
    6   -3    0    6   19   -0.000000    0.001425
    6   -3    0    7   19    0.001566    0.000000
    6   -3    0    8   19    0.000000   -0.000392
    6   -3    0    9   19    0.000000    0.000781
    6   -3    0   10   19   -0.003159    0.000000
    6   -3    0   11   19   -0.001380   -0.000000
    6   -3    0   12   19    0.000000   -0.001425
    6   -3    0   13   19   -0.000000    0.000000
    6   -3    0   14   19    0.000000   -0.000000
    6   -3    0   15   19    0.000000   -0.000000
    6   -3    0   16   19   -0.002947   -0.000000
    6   -3    0   17   19   -0.000000    0.000000
    6   -3    0   18   19   -0.000000    0.002947
    6   -3    0   19   19    0.000836   -0.000000
    6   -3    0   20   19    0.000000    0.000000
    6   -3    0   21   19    0.000000    0.000427
    6   -3    0   22   19   -0.000000   -0.000000
    6   -3    0    1   20    0.000000   -0.000392
    6   -3    0    2   20   -0.001566   -0.000000
    6   -3    0    3   20   -0.003159   -0.000000
    6   -3    0    4   20   -0.000000   -0.000781
    6   -3    0    5   20   -0.000000    0.001425
    6   -3    0    6   20   -0.001381   -0.000000
    6   -3    0    7   20    0.000000   -0.000392
    6   -3    0    8   20    0.001566   -0.000000
    6   -3    0    9   20    0.003159   -0.000000
    6   -3    0   10   20    0.000000   -0.000781
    6   -3    0   11   20    0.000000   -0.001425
    6   -3    0   12   20   -0.001380   -0.000000
    6   -3    0   13   20   -0.000000   -0.000000
    6   -3    0   14   20   -0.000000   -0.000000
    6   -3    0   15   20    0.002947    0.000000
    6   -3    0   16   20    0.000000    0.000000
    6   -3    0   17   20   -0.000000    0.002947
    6   -3    0   18   20   -0.000000   -0.000000
    6   -3    0   19   20    0.000000    0.000000
    6   -3    0   20   20    0.000836    0.000000
    6   -3    0   21   20    0.000000    0.000000
    6   -3    0   22   20    0.000000   -0.000427
    6   -3    0    1   21    0.000000    0.000175
    6   -3    0    2   21    0.000697   -0.000000
    6   -3    0    3   21    0.001751   -0.000000
    6   -3    0    4   21   -0.000000   -0.001679
    6   -3    0    5   21   -0.000000    0.000318
    6   -3    0    6   21   -0.001458    0.000000
    6   -3    0    7   21   -0.000000   -0.000175
    6   -3    0    8   21    0.000697   -0.000000
    6   -3    0    9   21    0.001751    0.000000
    6   -3    0   10   21   -0.000000    0.001678
    6   -3    0   11   21    0.000000    0.000318
    6   -3    0   12   21    0.001458   -0.000000
    6   -3    0   13   21    0.000000   -0.000000
    6   -3    0   14   21   -0.000000   -0.000000
    6   -3    0   15   21   -0.000000    0.000000
    6   -3    0   16   21   -0.000000   -0.002947
    6   -3    0   17   21   -0.000000    0.000000
    6   -3    0   18   21   -0.002947    0.000000
    6   -3    0   19   21   -0.000000   -0.000427
    6   -3    0   20   21    0.000000   -0.000000
    6   -3    0   21   21    0.000836   -0.000000
    6   -3    0   22   21   -0.000000   -0.000000
    6   -3    0    1   22   -0.000697   -0.000000
    6   -3    0    2   22    0.000000   -0.000175
    6   -3    0    3   22    0.000000   -0.001679
    6   -3    0    4   22    0.001751    0.000000
    6   -3    0    5   22    0.001458    0.000000
    6   -3    0    6   22    0.000000   -0.000318
    6   -3    0    7   22   -0.000697   -0.000000
    6   -3    0    8   22   -0.000000    0.000175
    6   -3    0    9   22   -0.000000    0.001678
    6   -3    0   10   22    0.001751   -0.000000
    6   -3    0   11   22   -0.001458    0.000000
    6   -3    0   12   22    0.000000   -0.000318
    6   -3    0   13   22    0.000000   -0.000000
    6   -3    0   14   22    0.000000    0.000000
    6   -3    0   15   22    0.000000   -0.002947
    6   -3    0   16   22   -0.000000   -0.000000
    6   -3    0   17   22    0.002947    0.000000
    6   -3    0   18   22    0.000000   -0.000000
    6   -3    0   19   22    0.000000    0.000000
    6   -3    0   20   22   -0.000000    0.000427
    6   -3    0   21   22   -0.000000   -0.000000
    6   -3    0   22   22    0.000836    0.000000
